
    -----------------------------------------------------------------------
          Psi4: An Open-Source Ab Initio Electronic Structure Package
                               Psi4 1.3.2 release

                         Git: Rev {HEAD} ecbda83 


    R. M. Parrish, L. A. Burns, D. G. A. Smith, A. C. Simmonett,
    A. E. DePrince III, E. G. Hohenstein, U. Bozkaya, A. Yu. Sokolov,
    R. Di Remigio, R. M. Richard, J. F. Gonthier, A. M. James,
    H. R. McAlexander, A. Kumar, M. Saitow, X. Wang, B. P. Pritchard,
    P. Verma, H. F. Schaefer III, K. Patkowski, R. A. King, E. F. Valeev,
    F. A. Evangelista, J. M. Turney, T. D. Crawford, and C. D. Sherrill,
    J. Chem. Theory Comput. 13(7) pp 3185--3197 (2017).
    (doi: 10.1021/acs.jctc.7b00174)


                         Additional Contributions by
    P. Kraus, H. Kruse, M. H. Lechner, M. C. Schieber, R. A. Shaw,
    A. Alenaizan, R. Galvelis, Z. L. Glick, S. Lehtola, and J. P. Misiewicz

    -----------------------------------------------------------------------


    Psi4 started on: Friday, 01 November 2019 02:11PM

    Process ID: 90003
    Host:       Mac-mini-3.local
    PSIDATADIR: /Users/aroeira/psi4conda/share/psi4
    Memory:     500.0 MiB
    Threads:    1
    
  ==> Input File <==

--------------------------------------------------------------------------
import os
import sys
import numpy as np
from TCCSD import TCCSD

temp = """
    unit bohr
    0 1
    O
    H 1 {:<1.5f}
    H 1 {:<1.5f} 2 104.52
    symmetry c1
"""

set {
    BASIS         sto-3g
    REFERENCE     RHF
    SCF_TYPE      PK
    SOSCF         True
    E_CONVERGENCE 8
    MAXITER       100
    MAX_ATTEMPTS  10
    GUESS         READ
}

e = []
ecas = []

#ratios = np.array(range(7,38,1))/10.0
ratios = [1]

line = '{:<2.2f}   {:<5.10f}   {:<5.10f}'

for r in ratios:
    print('!!@!! Running {}'.format(r))
    Re = 1.809*r
    mol = geometry(temp.format(Re, Re))
    X = TCCSD(mol)
    X.TCCSD(active_space='full', CC_MAXITER=100)
    e.append(X.Ecc)
    ecas.append(X.Ecas)
    print_out('!!@!! ' + line.format(r, ecas[-1], e[-1]))
    
out = ''

for i in range(len(ratios)):
    out += line.format(ratios[i],ecas[i],e[i])
    out += '\n'
    
output = open('uhf.dat', 'w')
output.write(out)
output.close()

--------------------------------------------------------------------------

*** tstart() called on Mac-mini-3.local
*** at Fri Nov  1 14:11:56 2019

   => Loading Basis Set <=

    Name: STO-3G
    Role: ORBITAL
    Keyword: BASIS
    atoms 1   entry O          line    81 file /Users/aroeira/psi4conda/share/psi4/basis/sto-3g.gbs 
    atoms 2-3 entry H          line    19 file /Users/aroeira/psi4conda/share/psi4/basis/sto-3g.gbs 


         ---------------------------------------------------------
                                   SCF
               by Justin Turney, Rob Parrish, Andy Simmonett
                          and Daniel G. A. Smith
                              RHF Reference
                        1 Threads,    500 MiB Core
         ---------------------------------------------------------

  ==> Geometry <==

    Molecular point group: c1
    Full point group: C2v

    Geometry (in Bohr), charge = 0, multiplicity = 1:

       Center              X                  Y                   Z               Mass       
    ------------   -----------------  -----------------  -----------------  -----------------
         O            0.000000000000     0.000000000000    -0.123917899933    15.994914619570
         H            0.000000000000    -1.430550712516     0.983333498315     1.007825032230
         H            0.000000000000     1.430550712516     0.983333498315     1.007825032230

  Running in c1 symmetry.

  Rotational constants: A =     27.43039  B =     14.59394  C =      9.52585 [cm^-1]
  Rotational constants: A = 822342.48037  B = 437515.33630  C = 285577.81846 [MHz]
  Nuclear repulsion =    9.194181307449954

  Charge       = 0
  Multiplicity = 1
  Electrons    = 10
  Nalpha       = 5
  Nbeta        = 5

  ==> Algorithm <==

  SCF Algorithm Type is PK.
  DIIS enabled.
  MOM disabled.
  Fractional occupation disabled.
  Guess Type is READ.
  Energy threshold   = 1.00e-08
  Density threshold  = 1.00e-06
  Integral threshold = 0.00e+00

  ==> Primary Basis <==

  Basis Set: STO-3G
    Blend: STO-3G
    Number of shells: 5
    Number of basis function: 7
    Number of Cartesian functions: 7
    Spherical Harmonics?: true
    Max angular momentum: 1

  Unable to find file 180, defaulting to SAD guess.
  ==> Pre-Iterations <==

   -------------------------------------------------------
    Irrep   Nso     Nmo     Nalpha   Nbeta   Ndocc  Nsocc
   -------------------------------------------------------
     A          7       7       0       0       0       0
   -------------------------------------------------------
    Total       7       7       5       5       5       0
   -------------------------------------------------------

  ==> Integral Setup <==

  Using in-core PK algorithm.
   Calculation information:
      Number of atoms:                   3
      Number of AO shells:               5
      Number of primitives:             15
      Number of atomic orbitals:         7
      Number of basis functions:         7

      Integral cutoff                 1.00e-12
      Number of threads:                 1

  Performing in-core PK
  Using 812 doubles for integral storage.
  We computed 120 shell quartets total.
  Whereas there are 120 unique shell quartets.

  ==> DiskJK: Disk-Based J/K Matrices <==

    J tasked:                  Yes
    K tasked:                  Yes
    wK tasked:                  No
    Memory [MiB]:              375
    Schwarz Cutoff:          1E-12

    OpenMP threads:              1

  Minimum eigenvalue in the overlap matrix is 3.4226570888E-01.
  Using Symmetric Orthogonalization.

  SCF Guess: Superposition of Atomic Densities via on-the-fly atomic UHF.

  ==> Iterations <==

                        Total Energy        Delta E     RMS |[F,P]|

   @RHF iter SAD:   -74.22204809062141   -7.42220e+01   0.00000e+00 
   @RHF iter   1:   -74.91362273639132   -6.91575e-01   3.54694e-02 DIIS
   @RHF iter   2:   -74.96201882407394   -4.83961e-02   5.35057e-03 DIIS
   @RHF iter   3:   -74.96287054326200   -8.51719e-04   1.26533e-03 SOSCF, nmicro=4
   @RHF iter   4:   -74.96294002784553   -6.94846e-05   2.83750e-06 SOSCF, nmicro=5
   @RHF iter   5:   -74.96294002825698   -4.11447e-10   2.07960e-11 SOSCF, nmicro=conv
  Energy and wave function converged.


  ==> Post-Iterations <==

    Orbital Energies [Eh]
    ---------------------

    Doubly Occupied:                                                      

       1A    -20.241749     2A     -1.268367     3A     -0.617891  
       4A     -0.452985     5A     -0.391239  

    Virtual:                                                              

       6A      0.605592     7A      0.742302  

    Final Occupation by Irrep:
              A 
    DOCC [     5 ]

  @RHF Final Energy:   -74.96294002825698

   => Energetics <=

    Nuclear Repulsion Energy =              9.1941813074499539
    One-Electron Energy =                -122.3697814415392457
    Two-Electron Energy =                  38.2126601058323274
    Total Energy =                        -74.9629400282569662

Computation Completed


Properties will be evaluated at   0.000000,   0.000000,   0.000000 [a0]

Properties computed using the SCF density matrix

  Nuclear Dipole Moment: [e a0]
     X:     0.0000      Y:    -0.0000      Z:     0.9753

  Electronic Dipole Moment: [e a0]
     X:     0.0000      Y:     0.0000      Z:    -0.2964

  Dipole Moment: [e a0]
     X:     0.0000      Y:     0.0000      Z:     0.6789     Total:     0.6789

  Dipole Moment: [D]
     X:     0.0000      Y:     0.0000      Z:     1.7257     Total:     1.7257


*** tstop() called on Mac-mini-3.local at Fri Nov  1 14:11:56 2019
Module time:
	user time   =       0.29 seconds =       0.00 minutes
	system time =       0.02 seconds =       0.00 minutes
	total time  =          0 seconds =       0.00 minutes
Total time:
	user time   =       0.29 seconds =       0.00 minutes
	system time =       0.02 seconds =       0.00 minutes
	total time  =          0 seconds =       0.00 minutes
!! C0 value 0.9867177687!!@!! 1.00   -75.0124258090   -75.0124258090
    Psi4 stopped on: Friday, 01 November 2019 02:12PM
    Psi4 wall time for execution: 0:00:07.88

*** Psi4 exiting successfully. Buy a developer a beer!
