
    -----------------------------------------------------------------------
          Psi4: An Open-Source Ab Initio Electronic Structure Package
                               Psi4 1.3.2 release

                         Git: Rev {HEAD} ecbda83 


    R. M. Parrish, L. A. Burns, D. G. A. Smith, A. C. Simmonett,
    A. E. DePrince III, E. G. Hohenstein, U. Bozkaya, A. Yu. Sokolov,
    R. Di Remigio, R. M. Richard, J. F. Gonthier, A. M. James,
    H. R. McAlexander, A. Kumar, M. Saitow, X. Wang, B. P. Pritchard,
    P. Verma, H. F. Schaefer III, K. Patkowski, R. A. King, E. F. Valeev,
    F. A. Evangelista, J. M. Turney, T. D. Crawford, and C. D. Sherrill,
    J. Chem. Theory Comput. 13(7) pp 3185--3197 (2017).
    (doi: 10.1021/acs.jctc.7b00174)


                         Additional Contributions by
    P. Kraus, H. Kruse, M. H. Lechner, M. C. Schieber, R. A. Shaw,
    A. Alenaizan, R. Galvelis, Z. L. Glick, S. Lehtola, and J. P. Misiewicz

    -----------------------------------------------------------------------


    Psi4 started on: Wednesday, 06 November 2019 01:23PM

    Process ID: 99975
    Host:       Mac-mini-3.local
    PSIDATADIR: /Users/aroeira/psi4conda/share/psi4
    Memory:     500.0 MiB
    Threads:    1
    
  ==> Input File <==

--------------------------------------------------------------------------
import os
import sys
import numpy as np
from HTCCSD import HTCCSD

molecule mol {
    0 1
    Be 
    symmetry c1
}

set {
    BASIS         6-31g
    REFERENCE     RHF
    SCF_TYPE      PK
    SOSCF         True
    E_CONVERGENCE 12
    MAXITER       100
    MAX_ATTEMPTS  10
    GUESS         READ
    R_CONVERGENCE 10
}

X = HTCCSD(mol)

X.HTCCSD('full', CC_CONV=12, MP2_GUESS=False, RELAX_T3=True)

print('CAS energy:   {:<5.10f}'.format(X.Ecas))
print('CCSD Energy:  {:<5.10f}'.format(energy('ccsd')))
#print('CCSDT (MRCC): -5.7381125680')
--------------------------------------------------------------------------

*** tstart() called on Mac-mini-3.local
*** at Wed Nov  6 13:23:56 2019

   => Loading Basis Set <=

    Name: 6-31G
    Role: ORBITAL
    Keyword: BASIS
    atoms 1 entry BE         line    57 file /Users/aroeira/psi4conda/share/psi4/basis/6-31g.gbs 


         ---------------------------------------------------------
                                   SCF
               by Justin Turney, Rob Parrish, Andy Simmonett
                          and Daniel G. A. Smith
                              RHF Reference
                        1 Threads,    500 MiB Core
         ---------------------------------------------------------

  ==> Geometry <==

    Molecular point group: c1
    Geometry (in Angstrom), charge = 0, multiplicity = 1:

       Center              X                  Y                   Z               Mass       
    ------------   -----------------  -----------------  -----------------  -----------------
         BE           0.000000000000     0.000000000000     0.000000000000     9.012183065000

  Running in c1 symmetry.

  Rotational constants: A = ************  B = ************  C = ************ [cm^-1]
  Rotational constants: A = ************  B = ************  C = ************ [MHz]
  Nuclear repulsion =    0.000000000000000

  Charge       = 0
  Multiplicity = 1
  Electrons    = 4
  Nalpha       = 2
  Nbeta        = 2

  ==> Algorithm <==

  SCF Algorithm Type is PK.
  DIIS enabled.
  MOM disabled.
  Fractional occupation disabled.
  Guess Type is READ.
  Energy threshold   = 1.00e-12
  Density threshold  = 1.00e-06
  Integral threshold = 0.00e+00

  ==> Primary Basis <==

  Basis Set: 6-31G
    Blend: 6-31G
    Number of shells: 5
    Number of basis function: 9
    Number of Cartesian functions: 9
    Spherical Harmonics?: false
    Max angular momentum: 1

  Unable to find file 180, defaulting to SAD guess.
  ==> Pre-Iterations <==

   -------------------------------------------------------
    Irrep   Nso     Nmo     Nalpha   Nbeta   Ndocc  Nsocc
   -------------------------------------------------------
     A          9       9       0       0       0       0
   -------------------------------------------------------
    Total       9       9       2       2       2       0
   -------------------------------------------------------

  ==> Integral Setup <==

  Using in-core PK algorithm.
   Calculation information:
      Number of atoms:                   1
      Number of AO shells:               5
      Number of primitives:             14
      Number of atomic orbitals:         9
      Number of basis functions:         9

      Integral cutoff                 1.00e-12
      Number of threads:                 1

  Performing in-core PK
  Using 2070 doubles for integral storage.
  We computed 120 shell quartets total.
  Whereas there are 120 unique shell quartets.

  ==> DiskJK: Disk-Based J/K Matrices <==

    J tasked:                  Yes
    K tasked:                  Yes
    wK tasked:                  No
    Memory [MiB]:              375
    Schwarz Cutoff:          1E-12

    OpenMP threads:              1

  Minimum eigenvalue in the overlap matrix is 1.2855047793E-01.
  Using Symmetric Orthogonalization.

  SCF Guess: Superposition of Atomic Densities via on-the-fly atomic UHF.

  ==> Iterations <==

                        Total Energy        Delta E     RMS |[F,P]|

   @RHF iter SAD:   -14.16602340373771   -1.41660e+01   0.00000e+00 
   @RHF iter   1:   -14.56433081494986   -3.98307e-01   4.18306e-03 DIIS
   @RHF iter   2:   -14.56664891522959   -2.31810e-03   9.07599e-04 DIIS
   @RHF iter   3:   -14.56676402958232   -1.15114e-04   9.39469e-06 SOSCF, nmicro=3
   @RHF iter   4:   -14.56676403350963   -3.92731e-09   2.89950e-11 SOSCF, nmicro=2
   @RHF iter   5:   -14.56676403350963   -5.32907e-15   5.15948e-12 SOSCF, nmicro=conv
  Energy and wave function converged.


  ==> Post-Iterations <==

    Orbital Energies [Eh]
    ---------------------

    Doubly Occupied:                                                      

       1A     -4.706891     2A     -0.301295  

    Virtual:                                                              

       3A      0.082435     4A      0.082435     5A      0.082435  
       6A      0.439754     7A      0.464931     8A      0.464931  
       9A      0.464931  

    Final Occupation by Irrep:
              A 
    DOCC [     2 ]

  @RHF Final Energy:   -14.56676403350963

   => Energetics <=

    Nuclear Repulsion Energy =              0.0000000000000000
    One-Electron Energy =                 -19.1171562815042435
    Two-Electron Energy =                   4.5503922479946102
    Total Energy =                        -14.5667640335096333

Computation Completed


Properties will be evaluated at   0.000000,   0.000000,   0.000000 [a0]

Properties computed using the SCF density matrix

  Nuclear Dipole Moment: [e a0]
     X:     0.0000      Y:     0.0000      Z:     0.0000

  Electronic Dipole Moment: [e a0]
     X:     0.0000      Y:    -0.0000      Z:     0.0000

  Dipole Moment: [e a0]
     X:     0.0000      Y:    -0.0000      Z:     0.0000     Total:     0.0000

  Dipole Moment: [D]
     X:     0.0000      Y:    -0.0000      Z:     0.0000     Total:     0.0000


*** tstop() called on Mac-mini-3.local at Wed Nov  6 13:23:57 2019
Module time:
	user time   =       0.20 seconds =       0.00 minutes
	system time =       0.01 seconds =       0.00 minutes
	total time  =          1 seconds =       0.02 minutes
Total time:
	user time   =       0.20 seconds =       0.00 minutes
	system time =       0.01 seconds =       0.00 minutes
	total time  =          1 seconds =       0.02 minutes

*** tstart() called on Mac-mini-3.local
*** at Wed Nov  6 13:24:24 2019

   => Loading Basis Set <=

    Name: 6-31G
    Role: ORBITAL
    Keyword: BASIS
    atoms 1 entry BE         line    57 file /Users/aroeira/psi4conda/share/psi4/basis/6-31g.gbs 


         ---------------------------------------------------------
                                   SCF
               by Justin Turney, Rob Parrish, Andy Simmonett
                          and Daniel G. A. Smith
                              RHF Reference
                        1 Threads,    500 MiB Core
         ---------------------------------------------------------

  ==> Geometry <==

    Molecular point group: c1
    Geometry (in Angstrom), charge = 0, multiplicity = 1:

       Center              X                  Y                   Z               Mass       
    ------------   -----------------  -----------------  -----------------  -----------------
         BE           0.000000000000     0.000000000000     0.000000000000     9.012183065000

  Running in c1 symmetry.

  Rotational constants: A = ************  B = ************  C = ************ [cm^-1]
  Rotational constants: A = ************  B = ************  C = ************ [MHz]
  Nuclear repulsion =    0.000000000000000

  Charge       = 0
  Multiplicity = 1
  Electrons    = 4
  Nalpha       = 2
  Nbeta        = 2

  ==> Algorithm <==

  SCF Algorithm Type is PK.
  DIIS enabled.
  MOM disabled.
  Fractional occupation disabled.
  Guess Type is READ.
  Energy threshold   = 1.00e-12
  Density threshold  = 1.00e-08
  Integral threshold = 0.00e+00

  ==> Primary Basis <==

  Basis Set: 6-31G
    Blend: 6-31G
    Number of shells: 5
    Number of basis function: 9
    Number of Cartesian functions: 9
    Spherical Harmonics?: false
    Max angular momentum: 1

   => Loading Basis Set <=

    Name: 6-31G
    Role: ORBITAL
    Keyword: BASIS
    atoms 1 entry BE         line    57 file /Users/aroeira/psi4conda/share/psi4/basis/6-31g.gbs 

  Reading orbitals from file 180, no projection.

  ==> Pre-Iterations <==

   -------------------------------------------------------
    Irrep   Nso     Nmo     Nalpha   Nbeta   Ndocc  Nsocc
   -------------------------------------------------------
     A          9       9       0       0       0       0
   -------------------------------------------------------
    Total       9       9       2       2       2       0
   -------------------------------------------------------

  ==> Integral Setup <==

  Using in-core PK algorithm.
   Calculation information:
      Number of atoms:                   1
      Number of AO shells:               5
      Number of primitives:             14
      Number of atomic orbitals:         9
      Number of basis functions:         9

      Integral cutoff                 1.00e-12
      Number of threads:                 1

  Performing in-core PK
  Using 2070 doubles for integral storage.
  We computed 120 shell quartets total.
  Whereas there are 120 unique shell quartets.

  ==> DiskJK: Disk-Based J/K Matrices <==

    J tasked:                  Yes
    K tasked:                  Yes
    wK tasked:                  No
    Memory [MiB]:              375
    Schwarz Cutoff:          1E-12

    OpenMP threads:              1

  Minimum eigenvalue in the overlap matrix is 1.2855047793E-01.
  Using Symmetric Orthogonalization.

  SCF Guess: Orbitals guess was supplied from a previous computation.

  ==> Iterations <==

                        Total Energy        Delta E     RMS |[F,P]|

   @RHF iter   0:   -14.56676403350963   -1.45668e+01   3.74448e-13 
   @RHF iter   1:   -14.56676403350962    8.88178e-15   3.50478e-14 DIIS
  Energy and wave function converged.


  ==> Post-Iterations <==

    Orbital Energies [Eh]
    ---------------------

    Doubly Occupied:                                                      

       1A     -4.706891     2A     -0.301295  

    Virtual:                                                              

       3A      0.082435     4A      0.082435     5A      0.082435  
       6A      0.439754     7A      0.464931     8A      0.464931  
       9A      0.464931  

    Final Occupation by Irrep:
              A 
    DOCC [     2 ]

  @RHF Final Energy:   -14.56676403350962

   => Energetics <=

    Nuclear Repulsion Energy =              0.0000000000000000
    One-Electron Energy =                 -19.1171562815194704
    Two-Electron Energy =                   4.5503922480098460
    Total Energy =                        -14.5667640335096245

Computation Completed


Properties will be evaluated at   0.000000,   0.000000,   0.000000 [a0]

Properties computed using the SCF density matrix

  Nuclear Dipole Moment: [e a0]
     X:     0.0000      Y:     0.0000      Z:     0.0000

  Electronic Dipole Moment: [e a0]
     X:    -0.0000      Y:     0.0000      Z:    -0.0000

  Dipole Moment: [e a0]
     X:    -0.0000      Y:     0.0000      Z:    -0.0000     Total:     0.0000

  Dipole Moment: [D]
     X:    -0.0000      Y:     0.0000      Z:    -0.0000     Total:     0.0000


*** tstop() called on Mac-mini-3.local at Wed Nov  6 13:24:24 2019
Module time:
	user time   =       0.10 seconds =       0.00 minutes
	system time =       0.01 seconds =       0.00 minutes
	total time  =          0 seconds =       0.00 minutes
Total time:
	user time   =      25.29 seconds =       0.42 minutes
	system time =       0.31 seconds =       0.01 minutes
	total time  =         28 seconds =       0.47 minutes
 MINTS: Wrapper to libmints.
   by Justin Turney

   Calculation information:
      Number of threads:                 1
      Number of atoms:                   1
      Number of AO shells:               5
      Number of SO shells:               5
      Number of primitives:             14
      Number of atomic orbitals:         9
      Number of basis functions:         9

      Number of irreps:                  1
      Integral cutoff                 0.00e+00
      Number of functions per irrep: [   9 ]

 OEINTS: Overlap, kinetic, potential, dipole, and quadrupole integrals
         stored in file 35.

      Computing two-electron integrals...done
      Computed 213 non-zero two-electron integrals.
        Stored in file 33.


*** tstart() called on Mac-mini-3.local
*** at Wed Nov  6 13:24:24 2019


	Wfn Parameters:
	--------------------
	Wavefunction         = CCSD
	Number of irreps     = 1
	Number of MOs        = 9
	Number of active MOs = 9
	AO-Basis             = NONE
	Semicanonical        = false
	Reference            = RHF
	Print Level          = 1

	IRREP	# MOs	# FZDC	# DOCC	# SOCC	# VIRT	# FZVR
	-----	-----	------	------	------	------	------
	 A	   9	    0	    2	    0	    7	    0
	Transforming integrals...
	IWL integrals will be deleted.
	(OO|OO)...
	Presorting SO-basis two-electron integrals.
	Sorting File: SO Ints (nn|nn) nbuckets = 1
	Transforming the one-electron integrals and constructing Fock matrices
	Starting first half-transformation.
	Sorting half-transformed integrals.
	First half integral transformation complete.
	Starting second half-transformation.
	Two-electron integral transformation complete.
	(OO|OV)...
	Starting second half-transformation.
	Two-electron integral transformation complete.
	(OO|VV)...
	Starting second half-transformation.
	Two-electron integral transformation complete.
	(OV|OO)...
	Starting first half-transformation.
	Sorting half-transformed integrals.
	First half integral transformation complete.
	Starting second half-transformation.
	Two-electron integral transformation complete.
	(OV|OV)...
	Starting second half-transformation.
	Two-electron integral transformation complete.
	(OV|VV)...
	Starting second half-transformation.
	Two-electron integral transformation complete.
	(VV|OO)...
	Starting first half-transformation.
	Sorting half-transformed integrals.
	First half integral transformation complete.
	Starting second half-transformation.
	Two-electron integral transformation complete.
	(VV|OV)...
	Starting second half-transformation.
	Two-electron integral transformation complete.
	(VV|VV)...
	Starting second half-transformation.
	Two-electron integral transformation complete.
	Frozen core energy     =      0.00000000000000

	Size of irrep 0 of <ab|cd> integrals:      0.002 (MW) /      0.019 (MB)
	Total:                                     0.002 (MW) /      0.019 (MB)

	Size of irrep 0 of <ia|bc> integrals:      0.001 (MW) /      0.005 (MB)
	Total:                                     0.001 (MW) /      0.005 (MB)

	Size of irrep 0 of tijab amplitudes:       0.000 (MW) /      0.002 (MB)
	Total:                                     0.000 (MW) /      0.002 (MB)

	Nuclear Rep. energy          =      0.00000000000000
	SCF energy                   =    -14.56676403350962
	One-electron energy          =    -19.11715628151987
	Two-electron energy          =      4.55039224801024
	Reference energy             =    -14.56676403350963

*** tstop() called on Mac-mini-3.local at Wed Nov  6 13:24:24 2019
Module time:
	user time   =       0.02 seconds =       0.00 minutes
	system time =       0.08 seconds =       0.00 minutes
	total time  =          0 seconds =       0.00 minutes
Total time:
	user time   =      25.32 seconds =       0.42 minutes
	system time =       0.40 seconds =       0.01 minutes
	total time  =         28 seconds =       0.47 minutes
            **************************
            *                        *
            *        CCENERGY        *
            *                        *
            **************************

    Nuclear Rep. energy (wfn)     =    0.000000000000000
    SCF energy          (wfn)     =  -14.566764033509624
    Reference energy    (file100) =  -14.566764033509630

    Input parameters:
    -----------------
    Wave function   =     CCSD
    Reference wfn   =     RHF
    Brueckner       =     No
    Memory (Mbytes) =     524.3
    Maxiter         =    100
    R_Convergence   =     1.0e-10
    E_Convergence   =     1.0e-12
    Restart         =     Yes
    DIIS            =     Yes
    AO Basis        =     NONE
    ABCD            =     NEW
    Cache Level     =     2
    Cache Type      =     LOW
    Print Level     =     1
    Num. of threads =     1
    # Amps to Print =     10
    Print MP2 Amps? =     No
    Analyze T2 Amps =     No
    Print Pair Ener =     No
    Local CC        =     No
    SCS-MP2         =     False
    SCSN-MP2        =     False
    SCS-CCSD        =     False

MP2 correlation energy -0.0243110108195197
                Solving CC Amplitude Equations
                ------------------------------
  Iter             Energy              RMS        T1Diag      D1Diag    New D1Diag    D2Diag
  ----     ---------------------    ---------   ----------  ----------  ----------   --------
     0        -0.024311010819520    0.000e+00    0.000000    0.000000    0.000000    0.162235
     1        -0.035547809608914    8.378e-02    0.003262    0.006524    0.006524    0.244315
     2        -0.046868826599250    4.407e-02    0.008120    0.016240    0.016240    0.331850
     3        -0.046546076529660    2.793e-03    0.008387    0.016774    0.016774    0.330706
     4        -0.046747063804767    8.344e-04    0.008464    0.016928    0.016928    0.332260
     5        -0.046753794584316    4.216e-05    0.008460    0.016919    0.016919    0.332316
     6        -0.046753413499608    6.412e-06    0.008458    0.016915    0.016915    0.332316
     7        -0.046754134182112    2.915e-06    0.008457    0.016915    0.016915    0.332322
     8        -0.046754046229043    4.555e-07    0.008457    0.016915    0.016915    0.332321
     9        -0.046754026097376    7.070e-08    0.008457    0.016915    0.016915    0.332321
    10        -0.046754030502038    1.841e-08    0.008457    0.016915    0.016915    0.332321
    11        -0.046754030517938    2.156e-10    0.008457    0.016915    0.016915    0.332321
    12        -0.046754030516342    2.583e-11    0.008457    0.016915    0.016915    0.332321
    13        -0.046754030516360    1.192e-12    0.008457    0.016915    0.016915    0.332321
    14        -0.046754030516361    6.593e-14    0.008457    0.016915    0.016915    0.332321

    Iterations converged.


    Largest TIA Amplitudes:
              1   3        -0.0169111751
              0   3         0.0003437759

    Largest TIjAb Amplitudes:
      1   1   0   0        -0.1715373885
      1   1   1   1        -0.1715373885
      1   1   2   2        -0.1715373885
      1   1   0   5        -0.0569310068
      1   1   5   0        -0.0569310068
      1   1   1   6        -0.0472561213
      1   1   6   1        -0.0472561213
      1   1   2   4         0.0468953282
      1   1   4   2         0.0468953282
      1   1   3   3        -0.0334021904

    SCF energy       (wfn)                    =  -14.566764033509624
    Reference energy (file100)                =  -14.566764033509630

    Opposite-spin MP2 correlation energy      =   -0.024225948440946
    Same-spin MP2 correlation energy          =   -0.000085062378574
    MP2 correlation energy                    =   -0.024311010819520
      * MP2 total energy                      =  -14.591075044329150

    Opposite-spin CCSD correlation energy     =   -0.046693587536377
    Same-spin CCSD correlation energy         =   -0.000060442979984
    CCSD correlation energy                   =   -0.046754030516361
      * CCSD total energy                     =  -14.613518064025991


    Psi4 stopped on: Wednesday, 06 November 2019 01:24PM
    Psi4 wall time for execution: 0:00:28.57

*** Psi4 exiting successfully. Buy a developer a beer!
