
    -----------------------------------------------------------------------
          Psi4: An Open-Source Ab Initio Electronic Structure Package
                               Psi4 1.3.2 release

                         Git: Rev {HEAD} ecbda83 


    R. M. Parrish, L. A. Burns, D. G. A. Smith, A. C. Simmonett,
    A. E. DePrince III, E. G. Hohenstein, U. Bozkaya, A. Yu. Sokolov,
    R. Di Remigio, R. M. Richard, J. F. Gonthier, A. M. James,
    H. R. McAlexander, A. Kumar, M. Saitow, X. Wang, B. P. Pritchard,
    P. Verma, H. F. Schaefer III, K. Patkowski, R. A. King, E. F. Valeev,
    F. A. Evangelista, J. M. Turney, T. D. Crawford, and C. D. Sherrill,
    J. Chem. Theory Comput. 13(7) pp 3185--3197 (2017).
    (doi: 10.1021/acs.jctc.7b00174)


                         Additional Contributions by
    P. Kraus, H. Kruse, M. H. Lechner, M. C. Schieber, R. A. Shaw,
    A. Alenaizan, R. Galvelis, Z. L. Glick, S. Lehtola, and J. P. Misiewicz

    -----------------------------------------------------------------------


    Psi4 started on: Friday, 01 November 2019 06:00PM

    Process ID: 92359
    Host:       Mac-mini-3.local
    PSIDATADIR: /Users/aroeira/psi4conda/share/psi4
    Memory:     500.0 MiB
    Threads:    1
    
  ==> Input File <==

--------------------------------------------------------------------------
import os
import sys
import numpy as np
from HTCCSD import HTCCSD

molecule mol {
    0 1
    H       -4.2523180199      2.2841937137      0.0103070289                 
    H       -4.2454531865      1.5763185292     -0.0008415103                 
    H       -7.0858409784      2.3178981468     -0.1093346282                 
    H       -7.0826153072      1.6171370497     -0.0084233837   
    symmetry c1
}

set {
    BASIS         cc-pvdz
    REFERENCE     RHF
    SCF_TYPE      PK
    SOSCF         True
    E_CONVERGENCE 12
    MAXITER       100
    MAX_ATTEMPTS  10
    GUESS         READ
    R_CONVERGENCE 10
}

X = HTCCSD(mol)

X.HTCCSD('full', CC_CONV=12, MP2_GUESS=False, RELAX_T3=True)

print('CAS energy:   {:<5.10f}'.format(X.Ecas))
print('CCSD Energy:  {:<5.10f}'.format(energy('ccsd')))
#print('CCSDT (MRCC): -5.7381125680')
--------------------------------------------------------------------------

*** tstart() called on Mac-mini-3.local
*** at Fri Nov  1 18:00:05 2019

   => Loading Basis Set <=

    Name: CC-PVDZ
    Role: ORBITAL
    Keyword: BASIS
    atoms 1-4 entry H          line    22 file /Users/aroeira/psi4conda/share/psi4/basis/cc-pvdz.gbs 


         ---------------------------------------------------------
                                   SCF
               by Justin Turney, Rob Parrish, Andy Simmonett
                          and Daniel G. A. Smith
                              RHF Reference
                        1 Threads,    500 MiB Core
         ---------------------------------------------------------

  ==> Geometry <==

    Molecular point group: c1
    Full point group: C1

    Geometry (in Angstrom), charge = 0, multiplicity = 1:

       Center              X                  Y                   Z               Mass       
    ------------   -----------------  -----------------  -----------------  -----------------
         H            1.414238853100     0.335306853850     0.037380152225     1.007825032230
         H            1.421103686500    -0.372568330650     0.026231613025     1.007825032230
         H           -1.419284105400     0.369011286950    -0.082261504875     1.007825032230
         H           -1.416058434200    -0.331749810150     0.018649739625     1.007825032230

  Running in c1 symmetry.

  Rotational constants: A =     33.38610  B =      2.07837  C =      1.95801 [cm^-1]
  Rotational constants: A = 1000890.12829  B =  62307.98484  C =  58699.79409 [MHz]
  Nuclear repulsion =    2.230049113103579

  Charge       = 0
  Multiplicity = 1
  Electrons    = 4
  Nalpha       = 2
  Nbeta        = 2

  ==> Algorithm <==

  SCF Algorithm Type is PK.
  DIIS enabled.
  MOM disabled.
  Fractional occupation disabled.
  Guess Type is READ.
  Energy threshold   = 1.00e-12
  Density threshold  = 1.00e-06
  Integral threshold = 0.00e+00

  ==> Primary Basis <==

  Basis Set: CC-PVDZ
    Blend: CC-PVDZ
    Number of shells: 12
    Number of basis function: 20
    Number of Cartesian functions: 20
    Spherical Harmonics?: true
    Max angular momentum: 1

  Unable to find file 180, defaulting to SAD guess.
  ==> Pre-Iterations <==

   -------------------------------------------------------
    Irrep   Nso     Nmo     Nalpha   Nbeta   Ndocc  Nsocc
   -------------------------------------------------------
     A         20      20       0       0       0       0
   -------------------------------------------------------
    Total      20      20       2       2       2       0
   -------------------------------------------------------

  ==> Integral Setup <==

  Using in-core PK algorithm.
   Calculation information:
      Number of atoms:                   4
      Number of AO shells:              12
      Number of primitives:             20
      Number of atomic orbitals:        20
      Number of basis functions:        20

      Integral cutoff                 1.00e-12
      Number of threads:                 1

  Performing in-core PK
  Using 44310 doubles for integral storage.
  We computed 3081 shell quartets total.
  Whereas there are 3081 unique shell quartets.

  ==> DiskJK: Disk-Based J/K Matrices <==

    J tasked:                  Yes
    K tasked:                  Yes
    wK tasked:                  No
    Memory [MiB]:              375
    Schwarz Cutoff:          1E-12

    OpenMP threads:              1

  Minimum eigenvalue in the overlap matrix is 3.6224586278E-02.
  Using Symmetric Orthogonalization.

  SCF Guess: Superposition of Atomic Densities via on-the-fly atomic UHF.

  ==> Iterations <==

                        Total Energy        Delta E     RMS |[F,P]|

   @RHF iter SAD:    -1.69841532918591   -1.69842e+00   0.00000e+00 
   @RHF iter   1:    -2.24815461285818   -5.49739e-01   3.64976e-03 DIIS
   @RHF iter   2:    -2.25396942606818   -5.81481e-03   6.74618e-04 DIIS
   @RHF iter   3:    -2.25417591263683   -2.06487e-04   2.79703e-05 SOSCF, nmicro=3
   @RHF iter   4:    -2.25417608751659   -1.74880e-07   1.42592e-08 SOSCF, nmicro=4
   @RHF iter   5:    -2.25417608751665   -6.21725e-14   7.32437e-12 SOSCF, nmicro=conv
  Energy and wave function converged.


  ==> Post-Iterations <==

    Orbital Energies [Eh]
    ---------------------

    Doubly Occupied:                                                      

       1A     -0.611317     2A     -0.590396  

    Virtual:                                                              

       3A      0.177931     4A      0.238650     5A      0.440171  
       6A      0.530570     7A      0.949275     8A      0.988937  
       9A      1.298123    10A      1.298548    11A      1.300758  
      12A      1.315941    13A      1.982091    14A      2.011187  
      15A      2.065520    16A      2.066414    17A      2.066833  
      18A      2.074949    19A      3.813780    20A      3.840085  

    Final Occupation by Irrep:
              A 
    DOCC [     2 ]

  @RHF Final Energy:    -2.25417608751665

   => Energetics <=

    Nuclear Repulsion Energy =              2.2300491131035787
    One-Electron Energy =                  -6.5650252751299067
    Two-Electron Energy =                   2.0808000745096726
    Total Energy =                         -2.2541760875166550

Computation Completed


Properties will be evaluated at   0.000000,   0.000000,   0.000000 [a0]

Properties computed using the SCF density matrix

  Nuclear Dipole Moment: [e a0]
     X:     0.0000      Y:     0.0000      Z:     0.0000

  Electronic Dipole Moment: [e a0]
     X:    -0.0000      Y:    -0.0000      Z:     0.0000

  Dipole Moment: [e a0]
     X:    -0.0000      Y:    -0.0000      Z:     0.0000     Total:     0.0000

  Dipole Moment: [D]
     X:    -0.0000      Y:    -0.0000      Z:     0.0000     Total:     0.0000


*** tstop() called on Mac-mini-3.local at Fri Nov  1 18:00:06 2019
Module time:
	user time   =       0.30 seconds =       0.01 minutes
	system time =       0.01 seconds =       0.00 minutes
	total time  =          1 seconds =       0.02 minutes
Total time:
	user time   =       0.30 seconds =       0.01 minutes
	system time =       0.01 seconds =       0.00 minutes
	total time  =          1 seconds =       0.02 minutes
