
    -----------------------------------------------------------------------
          Psi4: An Open-Source Ab Initio Electronic Structure Package
                               Psi4 1.3.2 release

                         Git: Rev {HEAD} ecbda83 


    R. M. Parrish, L. A. Burns, D. G. A. Smith, A. C. Simmonett,
    A. E. DePrince III, E. G. Hohenstein, U. Bozkaya, A. Yu. Sokolov,
    R. Di Remigio, R. M. Richard, J. F. Gonthier, A. M. James,
    H. R. McAlexander, A. Kumar, M. Saitow, X. Wang, B. P. Pritchard,
    P. Verma, H. F. Schaefer III, K. Patkowski, R. A. King, E. F. Valeev,
    F. A. Evangelista, J. M. Turney, T. D. Crawford, and C. D. Sherrill,
    J. Chem. Theory Comput. 13(7) pp 3185--3197 (2017).
    (doi: 10.1021/acs.jctc.7b00174)


                         Additional Contributions by
    P. Kraus, H. Kruse, M. H. Lechner, M. C. Schieber, R. A. Shaw,
    A. Alenaizan, R. Galvelis, Z. L. Glick, S. Lehtola, and J. P. Misiewicz

    -----------------------------------------------------------------------


    Psi4 started on: Friday, 08 November 2019 05:06PM

    Process ID: 5195
    Host:       Mac-mini-3.local
    PSIDATADIR: /Users/aroeira/psi4conda/share/psi4
    Memory:     500.0 MiB
    Threads:    1
    
  ==> Input File <==

--------------------------------------------------------------------------
import os
import sys
import numpy as np
from HTCCSD import HTCCSD

molecule mol {
    0 1
    He 
    He 1 2.0
    He 1 2.0 2 120.0
    He 3 2.0 2 120.0 1 180.0
    symmetry c1
}

set {
    BASIS         6-31g
    REFERENCE     RHF
    SCF_TYPE      PK
    SOSCF         True
    E_CONVERGENCE 8
    MAXITER       100
    MAX_ATTEMPTS  10
    GUESS         READ
}

X = HTCCSD(mol)

X.HTCCSD('full', CC_CONV=8)

print('CAS energy:   {:<5.10f}'.format(X.Ecas))
print('CCSD Energy:  {:<5.10f}'.format(energy('ccsd')))
--------------------------------------------------------------------------

*** tstart() called on Mac-mini-3.local
*** at Fri Nov  8 17:06:41 2019

   => Loading Basis Set <=

    Name: 6-31G
    Role: ORBITAL
    Keyword: BASIS
    atoms 1-4 entry HE         line    34 file /Users/aroeira/psi4conda/share/psi4/basis/6-31g.gbs 


         ---------------------------------------------------------
                                   SCF
               by Justin Turney, Rob Parrish, Andy Simmonett
                          and Daniel G. A. Smith
                              RHF Reference
                        1 Threads,    500 MiB Core
         ---------------------------------------------------------

  ==> Geometry <==

    Molecular point group: c1
    Full point group: Cs

    Geometry (in Angstrom), charge = 0, multiplicity = 1:

       Center              X                  Y                   Z               Mass       
    ------------   -----------------  -----------------  -----------------  -----------------
         HE           1.366025403784     0.000000000000     0.000000000000     4.002603254130
         HE           1.366025403784    -2.000000000000     0.000000000000     4.002603254130
         HE          -0.366025403784     1.000000000000     0.000000000000     4.002603254130
         HE          -2.366025403784     1.000000000000     0.000000000000     4.002603254130

  Running in c1 symmetry.

  Rotational constants: A =      2.10583  B =      0.31281  C =      0.27235 [cm^-1]
  Rotational constants: A =  63131.28941  B =   9377.72028  C =   8164.88290 [MHz]
  Nuclear repulsion =    4.776003837692044

  Charge       = 0
  Multiplicity = 1
  Electrons    = 8
  Nalpha       = 4
  Nbeta        = 4

  ==> Algorithm <==

  SCF Algorithm Type is PK.
  DIIS enabled.
  MOM disabled.
  Fractional occupation disabled.
  Guess Type is READ.
  Energy threshold   = 1.00e-08
  Density threshold  = 1.00e-06
  Integral threshold = 0.00e+00

  ==> Primary Basis <==

  Basis Set: 6-31G
    Blend: 6-31G
    Number of shells: 8
    Number of basis function: 8
    Number of Cartesian functions: 8
    Spherical Harmonics?: false
    Max angular momentum: 0

  Unable to find file 180, defaulting to SAD guess.
  ==> Pre-Iterations <==

   -------------------------------------------------------
    Irrep   Nso     Nmo     Nalpha   Nbeta   Ndocc  Nsocc
   -------------------------------------------------------
     A          8       8       0       0       0       0
   -------------------------------------------------------
    Total       8       8       4       4       4       0
   -------------------------------------------------------

  ==> Integral Setup <==

  Using in-core PK algorithm.
   Calculation information:
      Number of atoms:                   4
      Number of AO shells:               8
      Number of primitives:             16
      Number of atomic orbitals:         8
      Number of basis functions:         8

      Integral cutoff                 1.00e-12
      Number of threads:                 1

  Performing in-core PK
  Using 1332 doubles for integral storage.
  We computed 552 shell quartets total.
  Whereas there are 666 unique shell quartets.

  ==> DiskJK: Disk-Based J/K Matrices <==

    J tasked:                  Yes
    K tasked:                  Yes
    wK tasked:                  No
    Memory [MiB]:              375
    Schwarz Cutoff:          1E-12

    OpenMP threads:              1

  Minimum eigenvalue in the overlap matrix is 2.9362007719E-01.
  Using Symmetric Orthogonalization.

  SCF Guess: Superposition of Atomic Densities via on-the-fly atomic UHF.

  ==> Iterations <==

                        Total Energy        Delta E     RMS |[F,P]|

   @RHF iter SAD:   -11.42869010357201   -1.14287e+01   0.00000e+00 
   @RHF iter   1:   -11.41441190596671    1.42782e-02   1.24298e-04 DIIS
   @RHF iter   2:   -11.41441237788603   -4.71919e-07   1.22158e-05 DIIS
   @RHF iter   3:   -11.41441238254959   -4.66355e-09   2.35947e-07 SOSCF, nmicro=conv
  Energy and wave function converged.


  ==> Post-Iterations <==

    Orbital Energies [Eh]
    ---------------------

    Doubly Occupied:                                                      

       1A     -0.948135     2A     -0.927285     3A     -0.900172  
       4A     -0.877016  

    Virtual:                                                              

       5A      1.254257     6A      1.336715     7A      1.483974  
       8A      1.664428  

    Final Occupation by Irrep:
              A 
    DOCC [     4 ]

  @RHF Final Energy:   -11.41441238254959

   => Energetics <=

    Nuclear Repulsion Energy =              4.7760038376920440
    One-Electron Energy =                 -25.0756169674257947
    Two-Electron Energy =                   8.8852007471841610
    Total Energy =                        -11.4144123825495889

Computation Completed


Properties will be evaluated at   0.000000,   0.000000,   0.000000 [a0]

Properties computed using the SCF density matrix

  Nuclear Dipole Moment: [e a0]
     X:     0.0000      Y:    -0.0000      Z:     0.0000

  Electronic Dipole Moment: [e a0]
     X:     0.0000      Y:    -0.0000      Z:     0.0000

  Dipole Moment: [e a0]
     X:     0.0000      Y:    -0.0000      Z:     0.0000     Total:     0.0000

  Dipole Moment: [D]
     X:     0.0000      Y:    -0.0000      Z:     0.0000     Total:     0.0000


*** tstop() called on Mac-mini-3.local at Fri Nov  8 17:06:42 2019
Module time:
	user time   =       0.23 seconds =       0.00 minutes
	system time =       0.02 seconds =       0.00 minutes
	total time  =          1 seconds =       0.02 minutes
Total time:
	user time   =       0.23 seconds =       0.00 minutes
	system time =       0.02 seconds =       0.00 minutes
	total time  =          1 seconds =       0.02 minutes

*** tstart() called on Mac-mini-3.local
*** at Fri Nov  8 17:09:21 2019

   => Loading Basis Set <=

    Name: 6-31G
    Role: ORBITAL
    Keyword: BASIS
    atoms 1-4 entry HE         line    34 file /Users/aroeira/psi4conda/share/psi4/basis/6-31g.gbs 


         ---------------------------------------------------------
                                   SCF
               by Justin Turney, Rob Parrish, Andy Simmonett
                          and Daniel G. A. Smith
                              RHF Reference
                        1 Threads,    500 MiB Core
         ---------------------------------------------------------

  ==> Geometry <==

    Molecular point group: c1
    Full point group: Cs

    Geometry (in Angstrom), charge = 0, multiplicity = 1:

       Center              X                  Y                   Z               Mass       
    ------------   -----------------  -----------------  -----------------  -----------------
         HE           1.366025403784     0.000000000000     0.000000000000     4.002603254130
         HE           1.366025403784    -2.000000000000     0.000000000000     4.002603254130
         HE          -0.366025403784     1.000000000000     0.000000000000     4.002603254130
         HE          -2.366025403784     1.000000000000     0.000000000000     4.002603254130

  Running in c1 symmetry.

  Rotational constants: A =      2.10583  B =      0.31281  C =      0.27235 [cm^-1]
  Rotational constants: A =  63131.28941  B =   9377.72028  C =   8164.88290 [MHz]
  Nuclear repulsion =    4.776003837692044

  Charge       = 0
  Multiplicity = 1
  Electrons    = 8
  Nalpha       = 4
  Nbeta        = 4

  ==> Algorithm <==

  SCF Algorithm Type is PK.
  DIIS enabled.
  MOM disabled.
  Fractional occupation disabled.
  Guess Type is READ.
  Energy threshold   = 1.00e-08
  Density threshold  = 1.00e-08
  Integral threshold = 0.00e+00

  ==> Primary Basis <==

  Basis Set: 6-31G
    Blend: 6-31G
    Number of shells: 8
    Number of basis function: 8
    Number of Cartesian functions: 8
    Spherical Harmonics?: false
    Max angular momentum: 0

   => Loading Basis Set <=

    Name: 6-31G
    Role: ORBITAL
    Keyword: BASIS
    atoms 1-4 entry HE         line    34 file /Users/aroeira/psi4conda/share/psi4/basis/6-31g.gbs 

  Reading orbitals from file 180, no projection.

  ==> Pre-Iterations <==

   -------------------------------------------------------
    Irrep   Nso     Nmo     Nalpha   Nbeta   Ndocc  Nsocc
   -------------------------------------------------------
     A          8       8       0       0       0       0
   -------------------------------------------------------
    Total       8       8       4       4       4       0
   -------------------------------------------------------

  ==> Integral Setup <==

  Using in-core PK algorithm.
   Calculation information:
      Number of atoms:                   4
      Number of AO shells:               8
      Number of primitives:             16
      Number of atomic orbitals:         8
      Number of basis functions:         8

      Integral cutoff                 1.00e-12
      Number of threads:                 1

  Performing in-core PK
  Using 1332 doubles for integral storage.
  We computed 552 shell quartets total.
  Whereas there are 666 unique shell quartets.

  ==> DiskJK: Disk-Based J/K Matrices <==

    J tasked:                  Yes
    K tasked:                  Yes
    wK tasked:                  No
    Memory [MiB]:              375
    Schwarz Cutoff:          1E-12

    OpenMP threads:              1

  Minimum eigenvalue in the overlap matrix is 2.9362007719E-01.
  Using Symmetric Orthogonalization.

  SCF Guess: Orbitals guess was supplied from a previous computation.

  ==> Iterations <==

                        Total Energy        Delta E     RMS |[F,P]|

   @RHF iter   0:   -11.41441238255128   -1.14144e+01   2.28879e-08 
   @RHF iter   1:   -11.41441238255128   -3.55271e-15   2.39332e-09 DIIS
  Energy and wave function converged.


  ==> Post-Iterations <==

    Orbital Energies [Eh]
    ---------------------

    Doubly Occupied:                                                      

       1A     -0.948135     2A     -0.927285     3A     -0.900172  
       4A     -0.877016  

    Virtual:                                                              

       5A      1.254257     6A      1.336715     7A      1.483974  
       8A      1.664428  

    Final Occupation by Irrep:
              A 
    DOCC [     4 ]

  @RHF Final Energy:   -11.41441238255128

   => Energetics <=

    Nuclear Repulsion Energy =              4.7760038376920440
    One-Electron Energy =                 -25.0756166190661745
    Two-Electron Energy =                   8.8852003988228496
    Total Energy =                        -11.4144123825512800

Computation Completed


Properties will be evaluated at   0.000000,   0.000000,   0.000000 [a0]

Properties computed using the SCF density matrix

  Nuclear Dipole Moment: [e a0]
     X:     0.0000      Y:    -0.0000      Z:     0.0000

  Electronic Dipole Moment: [e a0]
     X:     0.0000      Y:    -0.0000      Z:     0.0000

  Dipole Moment: [e a0]
     X:     0.0000      Y:    -0.0000      Z:     0.0000     Total:     0.0000

  Dipole Moment: [D]
     X:     0.0000      Y:    -0.0000      Z:     0.0000     Total:     0.0000


*** tstop() called on Mac-mini-3.local at Fri Nov  8 17:09:21 2019
Module time:
	user time   =       0.11 seconds =       0.00 minutes
	system time =       0.01 seconds =       0.00 minutes
	total time  =          0 seconds =       0.00 minutes
Total time:
	user time   =     157.47 seconds =       2.62 minutes
	system time =       0.83 seconds =       0.01 minutes
	total time  =        160 seconds =       2.67 minutes
 MINTS: Wrapper to libmints.
   by Justin Turney

   Calculation information:
      Number of threads:                 1
      Number of atoms:                   4
      Number of AO shells:               8
      Number of SO shells:               8
      Number of primitives:             16
      Number of atomic orbitals:         8
      Number of basis functions:         8

      Number of irreps:                  1
      Integral cutoff                 0.00e+00
      Number of functions per irrep: [   8 ]

 OEINTS: Overlap, kinetic, potential, dipole, and quadrupole integrals
         stored in file 35.

      Computing two-electron integrals...done
      Computed 666 non-zero two-electron integrals.
        Stored in file 33.


*** tstart() called on Mac-mini-3.local
*** at Fri Nov  8 17:09:21 2019


	Wfn Parameters:
	--------------------
	Wavefunction         = CCSD
	Number of irreps     = 1
	Number of MOs        = 8
	Number of active MOs = 8
	AO-Basis             = NONE
	Semicanonical        = false
	Reference            = RHF
	Print Level          = 1

	IRREP	# MOs	# FZDC	# DOCC	# SOCC	# VIRT	# FZVR
	-----	-----	------	------	------	------	------
	 A	   8	    0	    4	    0	    4	    0
	Transforming integrals...
	IWL integrals will be deleted.
	(OO|OO)...
	Presorting SO-basis two-electron integrals.
	Sorting File: SO Ints (nn|nn) nbuckets = 1
	Transforming the one-electron integrals and constructing Fock matrices
	Starting first half-transformation.
	Sorting half-transformed integrals.
	First half integral transformation complete.
	Starting second half-transformation.
	Two-electron integral transformation complete.
	(OO|OV)...
	Starting second half-transformation.
	Two-electron integral transformation complete.
	(OO|VV)...
	Starting second half-transformation.
	Two-electron integral transformation complete.
	(OV|OO)...
	Starting first half-transformation.
	Sorting half-transformed integrals.
	First half integral transformation complete.
	Starting second half-transformation.
	Two-electron integral transformation complete.
	(OV|OV)...
	Starting second half-transformation.
	Two-electron integral transformation complete.
	(OV|VV)...
	Starting second half-transformation.
	Two-electron integral transformation complete.
	(VV|OO)...
	Starting first half-transformation.
	Sorting half-transformed integrals.
	First half integral transformation complete.
	Starting second half-transformation.
	Two-electron integral transformation complete.
	(VV|OV)...
	Starting second half-transformation.
	Two-electron integral transformation complete.
	(VV|VV)...
	Starting second half-transformation.
	Two-electron integral transformation complete.
	Frozen core energy     =      0.00000000000000

	Size of irrep 0 of <ab|cd> integrals:      0.000 (MW) /      0.002 (MB)
	Total:                                     0.000 (MW) /      0.002 (MB)

	Size of irrep 0 of <ia|bc> integrals:      0.000 (MW) /      0.002 (MB)
	Total:                                     0.000 (MW) /      0.002 (MB)

	Size of irrep 0 of tijab amplitudes:       0.000 (MW) /      0.002 (MB)
	Total:                                     0.000 (MW) /      0.002 (MB)

	Nuclear Rep. energy          =      4.77600383769204
	SCF energy                   =    -11.41441238255128
	One-electron energy          =    -25.07561661820141
	Two-electron energy          =      8.88520039795791
	Reference energy             =    -11.41441238255146

*** tstop() called on Mac-mini-3.local at Fri Nov  8 17:09:21 2019
Module time:
	user time   =       0.01 seconds =       0.00 minutes
	system time =       0.05 seconds =       0.00 minutes
	total time  =          0 seconds =       0.00 minutes
Total time:
	user time   =     157.49 seconds =       2.62 minutes
	system time =       0.89 seconds =       0.01 minutes
	total time  =        160 seconds =       2.67 minutes
            **************************
            *                        *
            *        CCENERGY        *
            *                        *
            **************************

    Nuclear Rep. energy (wfn)     =    4.776003837692044
    SCF energy          (wfn)     =  -11.414412382551280
    Reference energy    (file100) =  -11.414412382551461

    Input parameters:
    -----------------
    Wave function   =     CCSD
    Reference wfn   =     RHF
    Brueckner       =     No
    Memory (Mbytes) =     524.3
    Maxiter         =    100
    R_Convergence   =     1.0e-07
    E_Convergence   =     1.0e-08
    Restart         =     Yes
    DIIS            =     Yes
    AO Basis        =     NONE
    ABCD            =     NEW
    Cache Level     =     2
    Cache Type      =     LOW
    Print Level     =     1
    Num. of threads =     1
    # Amps to Print =     10
    Print MP2 Amps? =     No
    Analyze T2 Amps =     No
    Print Pair Ener =     No
    Local CC        =     No
    SCS-MP2         =     False
    SCSN-MP2        =     False
    SCS-CCSD        =     False

MP2 correlation energy -0.0445544140371805
                Solving CC Amplitude Equations
                ------------------------------
  Iter             Energy              RMS        T1Diag      D1Diag    New D1Diag    D2Diag
  ----     ---------------------    ---------   ----------  ----------  ----------   --------
     0        -0.044554414037181    0.000e+00    0.000000    0.000000    0.000000    0.052483
     1        -0.055785965034687    2.484e-02    0.000962    0.001873    0.001873    0.065866
     2        -0.059584182715857    6.343e-03    0.001504    0.002922    0.002922    0.070478
     3        -0.059583044624969    1.205e-04    0.001549    0.003016    0.003016    0.070500
     4        -0.059583750025835    1.272e-05    0.001550    0.003020    0.003020    0.070503
     5        -0.059583817874503    3.086e-06    0.001550    0.003021    0.003021    0.070504
     6        -0.059583753366920    3.031e-07    0.001550    0.003021    0.003021    0.070504
     7        -0.059583769305059    4.336e-08    0.001550    0.003021    0.003021    0.070504
     8        -0.059583771957758    5.603e-09    0.001550    0.003021    0.003021    0.070504
     9        -0.059583771951613    3.819e-10    0.001550    0.003021    0.003021    0.070504

    Iterations converged.


    Largest TIA Amplitudes:
              0   0        -0.0030209415
              1   1        -0.0024831357
              2   2        -0.0017150018
              3   3        -0.0009949311
              2   1        -0.0000228448
              1   0        -0.0000200133
              0   2        -0.0000196102
              1   2         0.0000195635
              0   1         0.0000194767
              1   3        -0.0000149634

    Largest TIjAb Amplitudes:
      3   3   0   0        -0.0246621010
      2   2   1   1        -0.0215963079
      0   0   0   0        -0.0210855791
      1   1   1   1        -0.0204808214
      1   2   2   1        -0.0196403861
      2   1   1   2        -0.0196403861
      1   2   1   2        -0.0195393671
      2   1   2   1        -0.0195393671
      0   3   0   3        -0.0191351259
      3   0   3   0        -0.0191351259

    SCF energy       (wfn)                    =  -11.414412382551280
    Reference energy (file100)                =  -11.414412382551461

    Opposite-spin MP2 correlation energy      =   -0.044553857442522
    Same-spin MP2 correlation energy          =   -0.000000556594659
    MP2 correlation energy                    =   -0.044554414037181
      * MP2 total energy                      =  -11.458966796588642

    Opposite-spin CCSD correlation energy     =   -0.059583161905586
    Same-spin CCSD correlation energy         =   -0.000000610046027
    CCSD correlation energy                   =   -0.059583771951613
      * CCSD total energy                     =  -11.473996154503075


    Psi4 stopped on: Friday, 08 November 2019 05:09PM
    Psi4 wall time for execution: 0:02:39.92

*** Psi4 exiting successfully. Buy a developer a beer!
