
    -----------------------------------------------------------------------
          Psi4: An Open-Source Ab Initio Electronic Structure Package
                               Psi4 1.3.2 release

                         Git: Rev {HEAD} ecbda83 


    R. M. Parrish, L. A. Burns, D. G. A. Smith, A. C. Simmonett,
    A. E. DePrince III, E. G. Hohenstein, U. Bozkaya, A. Yu. Sokolov,
    R. Di Remigio, R. M. Richard, J. F. Gonthier, A. M. James,
    H. R. McAlexander, A. Kumar, M. Saitow, X. Wang, B. P. Pritchard,
    P. Verma, H. F. Schaefer III, K. Patkowski, R. A. King, E. F. Valeev,
    F. A. Evangelista, J. M. Turney, T. D. Crawford, and C. D. Sherrill,
    J. Chem. Theory Comput. 13(7) pp 3185--3197 (2017).
    (doi: 10.1021/acs.jctc.7b00174)


                         Additional Contributions by
    P. Kraus, H. Kruse, M. H. Lechner, M. C. Schieber, R. A. Shaw,
    A. Alenaizan, R. Galvelis, Z. L. Glick, S. Lehtola, and J. P. Misiewicz

    -----------------------------------------------------------------------


    Psi4 started on: Monday, 25 November 2019 05:46PM

    Process ID: 5894
    Host:       Mac-mini-3.local
    PSIDATADIR: /Users/aroeira/psi4conda/share/psi4
    Memory:     500.0 MiB
    Threads:    1
    
  ==> Input File <==

--------------------------------------------------------------------------
import os
import sys
import numpy as np
from HTCCSD import HTCCSD

molecule mol {
    0 1
    He 
    He 1 2.0
    He 1 2.0 2 120.0
    He 3 2.0 2 120.0 1 180.0
    He 2 2.0 3 120.0 1 180.0
    symmetry c1
}

set {
    BASIS         6-31g
    REFERENCE     RHF
    SCF_TYPE      PK
    SOSCF         True
    E_CONVERGENCE 8
    MAXITER       100
    MAX_ATTEMPTS  10
    GUESS         READ
}

X = HTCCSD(mol)

X.HTCCSD([2,3,4,5,6,7], CC_CONV=8)

print('CAS energy:   {:<5.10f}'.format(X.Ecas))
print('CCSD Energy:  {:<5.10f}'.format(energy('ccsd')))
--------------------------------------------------------------------------

*** tstart() called on Mac-mini-3.local
*** at Mon Nov 25 17:46:26 2019

   => Loading Basis Set <=

    Name: 6-31G
    Role: ORBITAL
    Keyword: BASIS
    atoms 1-5 entry HE         line    34 file /Users/aroeira/psi4conda/share/psi4/basis/6-31g.gbs 


         ---------------------------------------------------------
                                   SCF
               by Justin Turney, Rob Parrish, Andy Simmonett
                          and Daniel G. A. Smith
                              RHF Reference
                        1 Threads,    500 MiB Core
         ---------------------------------------------------------

  ==> Geometry <==

    Molecular point group: c1
    Full point group: C2v

    Geometry (in Angstrom), charge = 0, multiplicity = 1:

       Center              X                  Y                   Z               Mass       
    ------------   -----------------  -----------------  -----------------  -----------------
         HE           0.000000000000     0.000000000000    -1.492820323028     4.002603254130
         HE           0.000000000000    -1.732050807569    -0.492820323028     4.002603254130
         HE           0.000000000000     1.732050807569    -0.492820323028     4.002603254130
         HE           0.000000000000     2.732050807569     1.239230484541     4.002603254130
         HE           0.000000000000    -2.732050807569     1.239230484541     4.002603254130

  Running in c1 symmetry.

  Rotational constants: A =      0.72795  B =      0.20124  C =      0.15766 [cm^-1]
  Rotational constants: A =  21823.43954  B =   6033.13039  C =   4726.48487 [MHz]
  Nuclear repulsion =    7.211642227063429

  Charge       = 0
  Multiplicity = 1
  Electrons    = 10
  Nalpha       = 5
  Nbeta        = 5

  ==> Algorithm <==

  SCF Algorithm Type is PK.
  DIIS enabled.
  MOM disabled.
  Fractional occupation disabled.
  Guess Type is READ.
  Energy threshold   = 1.00e-08
  Density threshold  = 1.00e-06
  Integral threshold = 0.00e+00

  ==> Primary Basis <==

  Basis Set: 6-31G
    Blend: 6-31G
    Number of shells: 10
    Number of basis function: 10
    Number of Cartesian functions: 10
    Spherical Harmonics?: false
    Max angular momentum: 0

  Unable to find file 180, defaulting to SAD guess.
  ==> Pre-Iterations <==

   -------------------------------------------------------
    Irrep   Nso     Nmo     Nalpha   Nbeta   Ndocc  Nsocc
   -------------------------------------------------------
     A         10      10       0       0       0       0
   -------------------------------------------------------
    Total      10      10       5       5       5       0
   -------------------------------------------------------

  ==> Integral Setup <==

  Using in-core PK algorithm.
   Calculation information:
      Number of atoms:                   5
      Number of AO shells:              10
      Number of primitives:             20
      Number of atomic orbitals:        10
      Number of basis functions:        10

      Integral cutoff                 1.00e-12
      Number of threads:                 1

  Performing in-core PK
  Using 3080 doubles for integral storage.
  We computed 1096 shell quartets total.
  Whereas there are 1540 unique shell quartets.

  ==> DiskJK: Disk-Based J/K Matrices <==

    J tasked:                  Yes
    K tasked:                  Yes
    wK tasked:                  No
    Memory [MiB]:              375
    Schwarz Cutoff:          1E-12

    OpenMP threads:              1

  Minimum eigenvalue in the overlap matrix is 2.8799590282E-01.
  Using Symmetric Orthogonalization.

  SCF Guess: Superposition of Atomic Densities via on-the-fly atomic UHF.

  ==> Iterations <==

                        Total Energy        Delta E     RMS |[F,P]|

   @RHF iter SAD:   -14.28653324628116   -1.42865e+01   0.00000e+00 
   @RHF iter   1:   -14.26749238656234    1.90409e-02   1.16798e-04 DIIS
   @RHF iter   2:   -14.26749303600401   -6.49442e-07   1.13578e-05 DIIS
   @RHF iter   3:   -14.26749304229816   -6.29415e-09   2.29260e-07 SOSCF, nmicro=conv
  Energy and wave function converged.


  ==> Post-Iterations <==

    Orbital Energies [Eh]
    ---------------------

    Doubly Occupied:                                                      

       1A     -0.950376     2A     -0.935261     3A     -0.914094  
       4A     -0.891360     5A     -0.874212  

    Virtual:                                                              

       6A      1.246747     7A      1.303422     8A      1.399471  
       9A      1.546363    10A      1.691039  

    Final Occupation by Irrep:
              A 
    DOCC [     5 ]

  @RHF Final Energy:   -14.26749304229816

   => Energetics <=

    Nuclear Repulsion Energy =              7.2116422270634288
    One-Electron Energy =                 -33.8276634207989986
    Two-Electron Energy =                  12.3485281514374101
    Total Energy =                        -14.2674930422981596

Computation Completed


Properties will be evaluated at   0.000000,   0.000000,   0.000000 [a0]

Properties computed using the SCF density matrix

  Nuclear Dipole Moment: [e a0]
     X:     0.0000      Y:    -0.0000      Z:     0.0000

  Electronic Dipole Moment: [e a0]
     X:     0.0000      Y:    -0.0000      Z:    -0.0000

  Dipole Moment: [e a0]
     X:     0.0000      Y:    -0.0000      Z:    -0.0000     Total:     0.0000

  Dipole Moment: [D]
     X:     0.0000      Y:    -0.0000      Z:    -0.0000     Total:     0.0000


*** tstop() called on Mac-mini-3.local at Mon Nov 25 17:46:26 2019
Module time:
	user time   =       0.26 seconds =       0.00 minutes
	system time =       0.02 seconds =       0.00 minutes
	total time  =          0 seconds =       0.00 minutes
Total time:
	user time   =       0.26 seconds =       0.00 minutes
	system time =       0.02 seconds =       0.00 minutes
	total time  =          0 seconds =       0.00 minutes

*** tstart() called on Mac-mini-3.local
*** at Mon Nov 25 17:46:30 2019

   => Loading Basis Set <=

    Name: 6-31G
    Role: ORBITAL
    Keyword: BASIS
    atoms 1-5 entry HE         line    34 file /Users/aroeira/psi4conda/share/psi4/basis/6-31g.gbs 


         ---------------------------------------------------------
                                   SCF
               by Justin Turney, Rob Parrish, Andy Simmonett
                          and Daniel G. A. Smith
                              RHF Reference
                        1 Threads,    500 MiB Core
         ---------------------------------------------------------

  ==> Geometry <==

    Molecular point group: c1
    Full point group: C2v

    Geometry (in Angstrom), charge = 0, multiplicity = 1:

       Center              X                  Y                   Z               Mass       
    ------------   -----------------  -----------------  -----------------  -----------------
         HE           0.000000000000     0.000000000000    -1.492820323028     4.002603254130
         HE           0.000000000000    -1.732050807569    -0.492820323028     4.002603254130
         HE           0.000000000000     1.732050807569    -0.492820323028     4.002603254130
         HE           0.000000000000     2.732050807569     1.239230484541     4.002603254130
         HE           0.000000000000    -2.732050807569     1.239230484541     4.002603254130

  Running in c1 symmetry.

  Rotational constants: A =      0.72795  B =      0.20124  C =      0.15766 [cm^-1]
  Rotational constants: A =  21823.43954  B =   6033.13039  C =   4726.48487 [MHz]
  Nuclear repulsion =    7.211642227063429

  Charge       = 0
  Multiplicity = 1
  Electrons    = 10
  Nalpha       = 5
  Nbeta        = 5

  ==> Algorithm <==

  SCF Algorithm Type is PK.
  DIIS enabled.
  MOM disabled.
  Fractional occupation disabled.
  Guess Type is READ.
  Energy threshold   = 1.00e-08
  Density threshold  = 1.00e-08
  Integral threshold = 0.00e+00

  ==> Primary Basis <==

  Basis Set: 6-31G
    Blend: 6-31G
    Number of shells: 10
    Number of basis function: 10
    Number of Cartesian functions: 10
    Spherical Harmonics?: false
    Max angular momentum: 0

   => Loading Basis Set <=

    Name: 6-31G
    Role: ORBITAL
    Keyword: BASIS
    atoms 1-5 entry HE         line    34 file /Users/aroeira/psi4conda/share/psi4/basis/6-31g.gbs 

  Reading orbitals from file 180, no projection.

  ==> Pre-Iterations <==

   -------------------------------------------------------
    Irrep   Nso     Nmo     Nalpha   Nbeta   Ndocc  Nsocc
   -------------------------------------------------------
     A         10      10       0       0       0       0
   -------------------------------------------------------
    Total      10      10       5       5       5       0
   -------------------------------------------------------

  ==> Integral Setup <==

  Using in-core PK algorithm.
   Calculation information:
      Number of atoms:                   5
      Number of AO shells:              10
      Number of primitives:             20
      Number of atomic orbitals:        10
      Number of basis functions:        10

      Integral cutoff                 1.00e-12
      Number of threads:                 1

  Performing in-core PK
  Using 3080 doubles for integral storage.
  We computed 1096 shell quartets total.
  Whereas there are 1540 unique shell quartets.

  ==> DiskJK: Disk-Based J/K Matrices <==

    J tasked:                  Yes
    K tasked:                  Yes
    wK tasked:                  No
    Memory [MiB]:              375
    Schwarz Cutoff:          1E-12

    OpenMP threads:              1

  Minimum eigenvalue in the overlap matrix is 2.8799590282E-01.
  Using Symmetric Orthogonalization.

  SCF Guess: Orbitals guess was supplied from a previous computation.

  ==> Iterations <==

                        Total Energy        Delta E     RMS |[F,P]|

   @RHF iter   0:   -14.26749304230064   -1.42675e+01   2.24293e-08 
   @RHF iter   1:   -14.26749304230065   -1.06581e-14   2.36157e-09 DIIS
  Energy and wave function converged.


  ==> Post-Iterations <==

    Orbital Energies [Eh]
    ---------------------

    Doubly Occupied:                                                      

       1A     -0.950376     2A     -0.935261     3A     -0.914094  
       4A     -0.891360     5A     -0.874213  

    Virtual:                                                              

       6A      1.246747     7A      1.303422     8A      1.399471  
       9A      1.546363    10A      1.691039  

    Final Occupation by Irrep:
              A 
    DOCC [     5 ]

  @RHF Final Energy:   -14.26749304230065

   => Energetics <=

    Nuclear Repulsion Energy =              7.2116422270634288
    One-Electron Energy =                 -33.8276630361083974
    Two-Electron Energy =                  12.3485277667443221
    Total Energy =                        -14.2674930423006465

Computation Completed


Properties will be evaluated at   0.000000,   0.000000,   0.000000 [a0]

Properties computed using the SCF density matrix

  Nuclear Dipole Moment: [e a0]
     X:     0.0000      Y:    -0.0000      Z:     0.0000

  Electronic Dipole Moment: [e a0]
     X:     0.0000      Y:    -0.0000      Z:    -0.0000

  Dipole Moment: [e a0]
     X:     0.0000      Y:    -0.0000      Z:    -0.0000     Total:     0.0000

  Dipole Moment: [D]
     X:     0.0000      Y:    -0.0000      Z:    -0.0000     Total:     0.0000


*** tstop() called on Mac-mini-3.local at Mon Nov 25 17:46:30 2019
Module time:
	user time   =       0.12 seconds =       0.00 minutes
	system time =       0.01 seconds =       0.00 minutes
	total time  =          0 seconds =       0.00 minutes
Total time:
	user time   =       3.76 seconds =       0.06 minutes
	system time =       0.08 seconds =       0.00 minutes
	total time  =          4 seconds =       0.07 minutes
 MINTS: Wrapper to libmints.
   by Justin Turney

   Calculation information:
      Number of threads:                 1
      Number of atoms:                   5
      Number of AO shells:              10
      Number of SO shells:              10
      Number of primitives:             20
      Number of atomic orbitals:        10
      Number of basis functions:        10

      Number of irreps:                  1
      Integral cutoff                 0.00e+00
      Number of functions per irrep: [  10 ]

 OEINTS: Overlap, kinetic, potential, dipole, and quadrupole integrals
         stored in file 35.

      Computing two-electron integrals...done
      Computed 1540 non-zero two-electron integrals.
        Stored in file 33.


*** tstart() called on Mac-mini-3.local
*** at Mon Nov 25 17:46:30 2019


	Wfn Parameters:
	--------------------
	Wavefunction         = CCSD
	Number of irreps     = 1
	Number of MOs        = 10
	Number of active MOs = 10
	AO-Basis             = NONE
	Semicanonical        = false
	Reference            = RHF
	Print Level          = 1

	IRREP	# MOs	# FZDC	# DOCC	# SOCC	# VIRT	# FZVR
	-----	-----	------	------	------	------	------
	 A	   10	    0	    5	    0	    5	    0
	Transforming integrals...
	IWL integrals will be deleted.
	(OO|OO)...
	Presorting SO-basis two-electron integrals.
	Sorting File: SO Ints (nn|nn) nbuckets = 1
	Transforming the one-electron integrals and constructing Fock matrices
	Starting first half-transformation.
	Sorting half-transformed integrals.
	First half integral transformation complete.
	Starting second half-transformation.
	Two-electron integral transformation complete.
	(OO|OV)...
	Starting second half-transformation.
	Two-electron integral transformation complete.
	(OO|VV)...
	Starting second half-transformation.
	Two-electron integral transformation complete.
	(OV|OO)...
	Starting first half-transformation.
	Sorting half-transformed integrals.
	First half integral transformation complete.
	Starting second half-transformation.
	Two-electron integral transformation complete.
	(OV|OV)...
	Starting second half-transformation.
	Two-electron integral transformation complete.
	(OV|VV)...
	Starting second half-transformation.
	Two-electron integral transformation complete.
	(VV|OO)...
	Starting first half-transformation.
	Sorting half-transformed integrals.
	First half integral transformation complete.
	Starting second half-transformation.
	Two-electron integral transformation complete.
	(VV|OV)...
	Starting second half-transformation.
	Two-electron integral transformation complete.
	(VV|VV)...
	Starting second half-transformation.
	Two-electron integral transformation complete.
	Frozen core energy     =      0.00000000000000

	Size of irrep 0 of <ab|cd> integrals:      0.001 (MW) /      0.005 (MB)
	Total:                                     0.001 (MW) /      0.005 (MB)

	Size of irrep 0 of <ia|bc> integrals:      0.001 (MW) /      0.005 (MB)
	Total:                                     0.001 (MW) /      0.005 (MB)

	Size of irrep 0 of tijab amplitudes:       0.001 (MW) /      0.005 (MB)
	Total:                                     0.001 (MW) /      0.005 (MB)

	Nuclear Rep. energy          =      7.21164222706343
	SCF energy                   =    -14.26749304230065
	One-electron energy          =    -33.82766303551657
	Two-electron energy          =     12.34852776615215
	Reference energy             =    -14.26749304230100

*** tstop() called on Mac-mini-3.local at Mon Nov 25 17:46:30 2019
Module time:
	user time   =       0.01 seconds =       0.00 minutes
	system time =       0.07 seconds =       0.00 minutes
	total time  =          0 seconds =       0.00 minutes
Total time:
	user time   =       3.78 seconds =       0.06 minutes
	system time =       0.15 seconds =       0.00 minutes
	total time  =          4 seconds =       0.07 minutes
            **************************
            *                        *
            *        CCENERGY        *
            *                        *
            **************************

    Nuclear Rep. energy (wfn)     =    7.211642227063429
    SCF energy          (wfn)     =  -14.267493042300647
    Reference energy    (file100) =  -14.267493042300998

    Input parameters:
    -----------------
    Wave function   =     CCSD
    Reference wfn   =     RHF
    Brueckner       =     No
    Memory (Mbytes) =     524.3
    Maxiter         =    100
    R_Convergence   =     1.0e-07
    E_Convergence   =     1.0e-08
    Restart         =     Yes
    DIIS            =     Yes
    AO Basis        =     NONE
    ABCD            =     NEW
    Cache Level     =     2
    Cache Type      =     LOW
    Print Level     =     1
    Num. of threads =     1
    # Amps to Print =     10
    Print MP2 Amps? =     No
    Analyze T2 Amps =     No
    Print Pair Ener =     No
    Local CC        =     No
    SCS-MP2         =     False
    SCSN-MP2        =     False
    SCS-CCSD        =     False

MP2 correlation energy -0.0556726082810977
                Solving CC Amplitude Equations
                ------------------------------
  Iter             Energy              RMS        T1Diag      D1Diag    New D1Diag    D2Diag
  ----     ---------------------    ---------   ----------  ----------  ----------   --------
     0        -0.055672608281098    0.000e+00    0.000000    0.000000    0.000000    0.052681
     1        -0.069702058689830    2.775e-02    0.000965    0.001908    0.001908    0.066118
     2        -0.074445134834903    7.087e-03    0.001509    0.002976    0.002976    0.070753
     3        -0.074443650169961    1.364e-04    0.001554    0.003073    0.003073    0.070776
     4        -0.074444527612505    1.466e-05    0.001556    0.003077    0.003077    0.070780
     5        -0.074444612240933    3.533e-06    0.001556    0.003078    0.003078    0.070781
     6        -0.074444532463628    3.494e-07    0.001556    0.003078    0.003078    0.070780
     7        -0.074444551434624    5.090e-08    0.001556    0.003078    0.003078    0.070780
     8        -0.074444554970297    6.708e-09    0.001556    0.003078    0.003078    0.070780
     9        -0.074444554962145    4.532e-10    0.001556    0.003078    0.003078    0.070780

    Iterations converged.


    Largest TIA Amplitudes:
              0   0        -0.0030780933
              1   1        -0.0026945805
              2   2        -0.0021324985
              3   3        -0.0014475426
              4   4        -0.0009052501
              1   3        -0.0000263868
              2   0        -0.0000162061
              4   2        -0.0000142262
              4   0         0.0000128834
              0   2        -0.0000089050

    Largest TIjAb Amplitudes:
      2   2   2   2        -0.0219520427
      4   4   0   0        -0.0209047784
      3   3   1   1        -0.0189554608
      0   0   0   0        -0.0176757989
      1   1   1   1        -0.0172639456
      1   3   3   1        -0.0162339664
      3   1   1   3        -0.0162339664
      1   3   1   3        -0.0161928153
      3   1   3   1        -0.0161928153
      0   4   0   4        -0.0158797010

    SCF energy       (wfn)                    =  -14.267493042300647
    Reference energy (file100)                =  -14.267493042300998

    Opposite-spin MP2 correlation energy      =   -0.055671778557072
    Same-spin MP2 correlation energy          =   -0.000000829724026
    MP2 correlation energy                    =   -0.055672608281098
      * MP2 total energy                      =  -14.323165650582096

    Opposite-spin CCSD correlation energy     =   -0.074443638893075
    Same-spin CCSD correlation energy         =   -0.000000916069070
    CCSD correlation energy                   =   -0.074444554962145
      * CCSD total energy                     =  -14.341937597263144


    Psi4 stopped on: Monday, 25 November 2019 05:46PM
    Psi4 wall time for execution: 0:00:04.39

*** Psi4 exiting successfully. Buy a developer a beer!
