
    -----------------------------------------------------------------------
          Psi4: An Open-Source Ab Initio Electronic Structure Package
                               Psi4 1.3.2 release

                         Git: Rev {HEAD} ecbda83 


    R. M. Parrish, L. A. Burns, D. G. A. Smith, A. C. Simmonett,
    A. E. DePrince III, E. G. Hohenstein, U. Bozkaya, A. Yu. Sokolov,
    R. Di Remigio, R. M. Richard, J. F. Gonthier, A. M. James,
    H. R. McAlexander, A. Kumar, M. Saitow, X. Wang, B. P. Pritchard,
    P. Verma, H. F. Schaefer III, K. Patkowski, R. A. King, E. F. Valeev,
    F. A. Evangelista, J. M. Turney, T. D. Crawford, and C. D. Sherrill,
    J. Chem. Theory Comput. 13(7) pp 3185--3197 (2017).
    (doi: 10.1021/acs.jctc.7b00174)


                         Additional Contributions by
    P. Kraus, H. Kruse, M. H. Lechner, M. C. Schieber, R. A. Shaw,
    A. Alenaizan, R. Galvelis, Z. L. Glick, S. Lehtola, and J. P. Misiewicz

    -----------------------------------------------------------------------


    Psi4 started on: Friday, 29 November 2019 05:29PM

    Process ID: 16599
    Host:       Mac-mini-3.local
    PSIDATADIR: /Users/aroeira/psi4conda/share/psi4
    Memory:     500.0 MiB
    Threads:    1
    
  ==> Input File <==

--------------------------------------------------------------------------
import os
import sys
import numpy as np
from HTCCSD import HTCCSD

molecule mol {
    0 1
    He 
    He 1 2.0
    He 1 2.0 2 120.0
    symmetry c1
}

set {
    BASIS         6-31g
    REFERENCE     RHF
    SOSCF         True
    SCF_TYPE      PK 
    E_CONVERGENCE 8
    MAXITER       100
    MAX_ATTEMPTS  10
    GUESS         READ
}

X = HTCCSD(mol)

X.HTCCSD('full', CC_CONV = 10, RELAX_T3T1 = False)

print('CAS energy:   {:<5.10f}'.format(X.Ecas))
print('CCSD Energy:  {:<5.10f}'.format(energy('ccsd')))
--------------------------------------------------------------------------

*** tstart() called on Mac-mini-3.local
*** at Fri Nov 29 17:29:27 2019

   => Loading Basis Set <=

    Name: 6-31G
    Role: ORBITAL
    Keyword: BASIS
    atoms 1-3 entry HE         line    34 file /Users/aroeira/psi4conda/share/psi4/basis/6-31g.gbs 


         ---------------------------------------------------------
                                   SCF
               by Justin Turney, Rob Parrish, Andy Simmonett
                          and Daniel G. A. Smith
                              RHF Reference
                        1 Threads,    500 MiB Core
         ---------------------------------------------------------

  ==> Geometry <==

    Molecular point group: c1
    Full point group: C2v

    Geometry (in Angstrom), charge = 0, multiplicity = 1:

       Center              X                  Y                   Z               Mass       
    ------------   -----------------  -----------------  -----------------  -----------------
         HE           0.000000000000     0.000000000000    -0.666666666667     4.002603254130
         HE           0.000000000000    -1.732050807569     0.333333333333     4.002603254130
         HE           0.000000000000     1.732050807569     0.333333333333     4.002603254130

  Running in c1 symmetry.

  Rotational constants: A =      6.31750  B =      0.70194  C =      0.63175 [cm^-1]
  Rotational constants: A = 189393.86823  B =  21043.76314  C =  18939.38682 [MHz]
  Nuclear repulsion =    2.727750052738680

  Charge       = 0
  Multiplicity = 1
  Electrons    = 6
  Nalpha       = 3
  Nbeta        = 3

  ==> Algorithm <==

  SCF Algorithm Type is PK.
  DIIS enabled.
  MOM disabled.
  Fractional occupation disabled.
  Guess Type is READ.
  Energy threshold   = 1.00e-08
  Density threshold  = 1.00e-06
  Integral threshold = 0.00e+00

  ==> Primary Basis <==

  Basis Set: 6-31G
    Blend: 6-31G
    Number of shells: 6
    Number of basis function: 6
    Number of Cartesian functions: 6
    Spherical Harmonics?: false
    Max angular momentum: 0

  Unable to find file 180, defaulting to SAD guess.
  ==> Pre-Iterations <==

   -------------------------------------------------------
    Irrep   Nso     Nmo     Nalpha   Nbeta   Ndocc  Nsocc
   -------------------------------------------------------
     A          6       6       0       0       0       0
   -------------------------------------------------------
    Total       6       6       3       3       3       0
   -------------------------------------------------------

  ==> Integral Setup <==

  Using in-core PK algorithm.
   Calculation information:
      Number of atoms:                   3
      Number of AO shells:               6
      Number of primitives:             12
      Number of atomic orbitals:         6
      Number of basis functions:         6

      Integral cutoff                 1.00e-12
      Number of threads:                 1

  Performing in-core PK
  Using 462 doubles for integral storage.
  We computed 219 shell quartets total.
  Whereas there are 231 unique shell quartets.

  ==> DiskJK: Disk-Based J/K Matrices <==

    J tasked:                  Yes
    K tasked:                  Yes
    wK tasked:                  No
    Memory [MiB]:              375
    Schwarz Cutoff:          1E-12

    OpenMP threads:              1

  Minimum eigenvalue in the overlap matrix is 3.0360547404E-01.
  Using Symmetric Orthogonalization.

  SCF Guess: Superposition of Atomic Densities via on-the-fly atomic UHF.

  ==> Iterations <==

                        Total Energy        Delta E     RMS |[F,P]|

   @RHF iter SAD:    -8.57084696086288   -8.57085e+00   0.00000e+00 
   @RHF iter   1:    -8.56133138563130    9.51558e-03   1.30170e-04 DIIS
   @RHF iter   2:    -8.56133167857894   -2.92948e-07   1.30789e-05 DIIS
   @RHF iter   3:    -8.56133168159272   -3.01378e-09   2.26520e-07 SOSCF, nmicro=conv
  Energy and wave function converged.


  ==> Post-Iterations <==

    Orbital Energies [Eh]
    ---------------------

    Doubly Occupied:                                                      

       1A     -0.944126     2A     -0.913791     3A     -0.882015  

    Virtual:                                                              

       4A      1.267907     5A      1.404581     6A      1.619205  

    Final Occupation by Irrep:
              A 
    DOCC [     3 ]

  @RHF Final Energy:    -8.56133168159272

   => Energetics <=

    Nuclear Repulsion Energy =              2.7277500527386800
    One-Electron Energy =                 -17.0983000399803622
    Two-Electron Energy =                   5.8092183056489599
    Total Energy =                         -8.5613316815927227

Computation Completed


Properties will be evaluated at   0.000000,   0.000000,   0.000000 [a0]

Properties computed using the SCF density matrix

  Nuclear Dipole Moment: [e a0]
     X:     0.0000      Y:     0.0000      Z:     0.0000

  Electronic Dipole Moment: [e a0]
     X:     0.0000      Y:    -0.0000      Z:    -0.0000

  Dipole Moment: [e a0]
     X:     0.0000      Y:    -0.0000      Z:    -0.0000     Total:     0.0000

  Dipole Moment: [D]
     X:     0.0000      Y:    -0.0000      Z:    -0.0000     Total:     0.0000


*** tstop() called on Mac-mini-3.local at Fri Nov 29 17:29:28 2019
Module time:
	user time   =       0.20 seconds =       0.00 minutes
	system time =       0.01 seconds =       0.00 minutes
	total time  =          1 seconds =       0.02 minutes
Total time:
	user time   =       0.20 seconds =       0.00 minutes
	system time =       0.01 seconds =       0.00 minutes
	total time  =          1 seconds =       0.02 minutes

*** tstart() called on Mac-mini-3.local
*** at Fri Nov 29 17:29:31 2019

   => Loading Basis Set <=

    Name: 6-31G
    Role: ORBITAL
    Keyword: BASIS
    atoms 1-3 entry HE         line    34 file /Users/aroeira/psi4conda/share/psi4/basis/6-31g.gbs 


         ---------------------------------------------------------
                                   SCF
               by Justin Turney, Rob Parrish, Andy Simmonett
                          and Daniel G. A. Smith
                              RHF Reference
                        1 Threads,    500 MiB Core
         ---------------------------------------------------------

  ==> Geometry <==

    Molecular point group: c1
    Full point group: C2v

    Geometry (in Angstrom), charge = 0, multiplicity = 1:

       Center              X                  Y                   Z               Mass       
    ------------   -----------------  -----------------  -----------------  -----------------
         HE           0.000000000000     0.000000000000    -0.666666666667     4.002603254130
         HE           0.000000000000    -1.732050807569     0.333333333333     4.002603254130
         HE           0.000000000000     1.732050807569     0.333333333333     4.002603254130

  Running in c1 symmetry.

  Rotational constants: A =      6.31750  B =      0.70194  C =      0.63175 [cm^-1]
  Rotational constants: A = 189393.86823  B =  21043.76314  C =  18939.38682 [MHz]
  Nuclear repulsion =    2.727750052738679

  Charge       = 0
  Multiplicity = 1
  Electrons    = 6
  Nalpha       = 3
  Nbeta        = 3

  ==> Algorithm <==

  SCF Algorithm Type is PK.
  DIIS enabled.
  MOM disabled.
  Fractional occupation disabled.
  Guess Type is READ.
  Energy threshold   = 1.00e-08
  Density threshold  = 1.00e-08
  Integral threshold = 0.00e+00

  ==> Primary Basis <==

  Basis Set: 6-31G
    Blend: 6-31G
    Number of shells: 6
    Number of basis function: 6
    Number of Cartesian functions: 6
    Spherical Harmonics?: false
    Max angular momentum: 0

   => Loading Basis Set <=

    Name: 6-31G
    Role: ORBITAL
    Keyword: BASIS
    atoms 1-3 entry HE         line    34 file /Users/aroeira/psi4conda/share/psi4/basis/6-31g.gbs 

  Reading orbitals from file 180, no projection.

  ==> Pre-Iterations <==

   -------------------------------------------------------
    Irrep   Nso     Nmo     Nalpha   Nbeta   Ndocc  Nsocc
   -------------------------------------------------------
     A          6       6       0       0       0       0
   -------------------------------------------------------
    Total       6       6       3       3       3       0
   -------------------------------------------------------

  ==> Integral Setup <==

  Using in-core PK algorithm.
   Calculation information:
      Number of atoms:                   3
      Number of AO shells:               6
      Number of primitives:             12
      Number of atomic orbitals:         6
      Number of basis functions:         6

      Integral cutoff                 1.00e-12
      Number of threads:                 1

  Performing in-core PK
  Using 462 doubles for integral storage.
  We computed 219 shell quartets total.
  Whereas there are 231 unique shell quartets.

  ==> DiskJK: Disk-Based J/K Matrices <==

    J tasked:                  Yes
    K tasked:                  Yes
    wK tasked:                  No
    Memory [MiB]:              375
    Schwarz Cutoff:          1E-12

    OpenMP threads:              1

  Minimum eigenvalue in the overlap matrix is 3.0360547404E-01.
  Using Symmetric Orthogonalization.

  SCF Guess: Orbitals guess was supplied from a previous computation.

  ==> Iterations <==

                        Total Energy        Delta E     RMS |[F,P]|

   @RHF iter   0:    -8.56133168159357   -8.56133e+00   2.15259e-08 
   @RHF iter   1:    -8.56133168159359   -1.59872e-14   2.20295e-09 DIIS
  Energy and wave function converged.


  ==> Post-Iterations <==

    Orbital Energies [Eh]
    ---------------------

    Doubly Occupied:                                                      

       1A     -0.944126     2A     -0.913791     3A     -0.882015  

    Virtual:                                                              

       4A      1.267907     5A      1.404581     6A      1.619205  

    Final Occupation by Irrep:
              A 
    DOCC [     3 ]

  @RHF Final Energy:    -8.56133168159359

   => Energetics <=

    Nuclear Repulsion Energy =              2.7277500527386791
    One-Electron Energy =                 -17.0982997215493882
    Two-Electron Energy =                   5.8092179872171199
    Total Energy =                         -8.5613316815935896

Computation Completed


Properties will be evaluated at   0.000000,   0.000000,   0.000000 [a0]

Properties computed using the SCF density matrix

  Nuclear Dipole Moment: [e a0]
     X:     0.0000      Y:     0.0000      Z:     0.0000

  Electronic Dipole Moment: [e a0]
     X:     0.0000      Y:     0.0000      Z:    -0.0000

  Dipole Moment: [e a0]
     X:     0.0000      Y:     0.0000      Z:    -0.0000     Total:     0.0000

  Dipole Moment: [D]
     X:     0.0000      Y:     0.0000      Z:    -0.0000     Total:     0.0000


*** tstop() called on Mac-mini-3.local at Fri Nov 29 17:29:31 2019
Module time:
	user time   =       0.09 seconds =       0.00 minutes
	system time =       0.01 seconds =       0.00 minutes
	total time  =          0 seconds =       0.00 minutes
Total time:
	user time   =       3.15 seconds =       0.05 minutes
	system time =       0.05 seconds =       0.00 minutes
	total time  =          4 seconds =       0.07 minutes
 MINTS: Wrapper to libmints.
   by Justin Turney

   Calculation information:
      Number of threads:                 1
      Number of atoms:                   3
      Number of AO shells:               6
      Number of SO shells:               6
      Number of primitives:             12
      Number of atomic orbitals:         6
      Number of basis functions:         6

      Number of irreps:                  1
      Integral cutoff                 0.00e+00
      Number of functions per irrep: [   6 ]

 OEINTS: Overlap, kinetic, potential, dipole, and quadrupole integrals
         stored in file 35.

      Computing two-electron integrals...done
      Computed 231 non-zero two-electron integrals.
        Stored in file 33.


*** tstart() called on Mac-mini-3.local
*** at Fri Nov 29 17:29:31 2019


	Wfn Parameters:
	--------------------
	Wavefunction         = CCSD
	Number of irreps     = 1
	Number of MOs        = 6
	Number of active MOs = 6
	AO-Basis             = NONE
	Semicanonical        = false
	Reference            = RHF
	Print Level          = 1

	IRREP	# MOs	# FZDC	# DOCC	# SOCC	# VIRT	# FZVR
	-----	-----	------	------	------	------	------
	 A	   6	    0	    3	    0	    3	    0
	Transforming integrals...
	IWL integrals will be deleted.
	(OO|OO)...
	Presorting SO-basis two-electron integrals.
	Sorting File: SO Ints (nn|nn) nbuckets = 1
	Transforming the one-electron integrals and constructing Fock matrices
	Starting first half-transformation.
	Sorting half-transformed integrals.
	First half integral transformation complete.
	Starting second half-transformation.
	Two-electron integral transformation complete.
	(OO|OV)...
	Starting second half-transformation.
	Two-electron integral transformation complete.
	(OO|VV)...
	Starting second half-transformation.
	Two-electron integral transformation complete.
	(OV|OO)...
	Starting first half-transformation.
	Sorting half-transformed integrals.
	First half integral transformation complete.
	Starting second half-transformation.
	Two-electron integral transformation complete.
	(OV|OV)...
	Starting second half-transformation.
	Two-electron integral transformation complete.
	(OV|VV)...
	Starting second half-transformation.
	Two-electron integral transformation complete.
	(VV|OO)...
	Starting first half-transformation.
	Sorting half-transformed integrals.
	First half integral transformation complete.
	Starting second half-transformation.
	Two-electron integral transformation complete.
	(VV|OV)...
	Starting second half-transformation.
	Two-electron integral transformation complete.
	(VV|VV)...
	Starting second half-transformation.
	Two-electron integral transformation complete.
	Frozen core energy     =      0.00000000000000

	Size of irrep 0 of <ab|cd> integrals:      0.000 (MW) /      0.001 (MB)
	Total:                                     0.000 (MW) /      0.001 (MB)

	Size of irrep 0 of <ia|bc> integrals:      0.000 (MW) /      0.001 (MB)
	Total:                                     0.000 (MW) /      0.001 (MB)

	Size of irrep 0 of tijab amplitudes:       0.000 (MW) /      0.001 (MB)
	Total:                                     0.000 (MW) /      0.001 (MB)

	Nuclear Rep. energy          =      2.72775005273868
	SCF energy                   =     -8.56133168159359
	One-electron energy          =    -17.09829972037305
	Two-electron energy          =      5.80921798604079
	Reference energy             =     -8.56133168159358

*** tstop() called on Mac-mini-3.local at Fri Nov 29 17:29:31 2019
Module time:
	user time   =       0.01 seconds =       0.00 minutes
	system time =       0.05 seconds =       0.00 minutes
	total time  =          0 seconds =       0.00 minutes
Total time:
	user time   =       3.17 seconds =       0.05 minutes
	system time =       0.11 seconds =       0.00 minutes
	total time  =          4 seconds =       0.07 minutes
            **************************
            *                        *
            *        CCENERGY        *
            *                        *
            **************************

    Nuclear Rep. energy (wfn)     =    2.727750052738679
    SCF energy          (wfn)     =   -8.561331681593590
    Reference energy    (file100) =   -8.561331681593584

    Input parameters:
    -----------------
    Wave function   =     CCSD
    Reference wfn   =     RHF
    Brueckner       =     No
    Memory (Mbytes) =     524.3
    Maxiter         =    100
    R_Convergence   =     1.0e-07
    E_Convergence   =     1.0e-08
    Restart         =     Yes
    DIIS            =     Yes
    AO Basis        =     NONE
    ABCD            =     NEW
    Cache Level     =     2
    Cache Type      =     LOW
    Print Level     =     1
    Num. of threads =     1
    # Amps to Print =     10
    Print MP2 Amps? =     No
    Analyze T2 Amps =     No
    Print Pair Ener =     No
    Local CC        =     No
    SCS-MP2         =     False
    SCSN-MP2        =     False
    SCS-CCSD        =     False

MP2 correlation energy -0.0334362244724656
                Solving CC Amplitude Equations
                ------------------------------
  Iter             Energy              RMS        T1Diag      D1Diag    New D1Diag    D2Diag
  ----     ---------------------    ---------   ----------  ----------  ----------   --------
     0        -0.033436224472466    0.000e+00    0.000000    0.000000    0.000000    0.052130
     1        -0.041869876352573    2.153e-02    0.000957    0.001810    0.001810    0.065415
     2        -0.044723235762974    5.499e-03    0.001496    0.002824    0.002824    0.069987
     3        -0.044722444311574    1.021e-04    0.001540    0.002914    0.002914    0.070006
     4        -0.044722977632342    1.043e-05    0.001541    0.002917    0.002917    0.070009
     5        -0.044723028771114    2.558e-06    0.001541    0.002918    0.002918    0.070010
     6        -0.044722979319159    2.483e-07    0.001541    0.002918    0.002918    0.070010
     7        -0.044722992704635    3.447e-08    0.001541    0.002918    0.002918    0.070010
     8        -0.044722994199570    3.724e-09    0.001541    0.002918    0.002918    0.070010
     9        -0.044722994195566    2.801e-10    0.001541    0.002918    0.002918    0.070010

    Iterations converged.


    Largest TIA Amplitudes:
              0   0        -0.0029179538
              1   1        -0.0020992362
              2   2        -0.0011535780
              0   2        -0.0000215075
              2   0        -0.0000081745

    Largest TIjAb Amplitudes:
      1   1   1   1        -0.0328583006
      2   2   0   0        -0.0300009587
      0   0   0   0        -0.0261531656
      0   2   0   2        -0.0240888174
      2   0   2   0        -0.0240888174
      0   2   2   0        -0.0240822251
      2   0   0   2        -0.0240822251
      2   2   2   2        -0.0225591368
      0   0   2   2        -0.0197339656
      1   1   0   0        -0.0189780017

    SCF energy       (wfn)                    =   -8.561331681593590
    Reference energy (file100)                =   -8.561331681593584

    Opposite-spin MP2 correlation energy      =   -0.033435939387789
    Same-spin MP2 correlation energy          =   -0.000000285084677
    MP2 correlation energy                    =   -0.033436224472466
      * MP2 total energy                      =   -8.594767906066050

    Opposite-spin CCSD correlation energy     =   -0.044722688333697
    Same-spin CCSD correlation energy         =   -0.000000305861869
    CCSD correlation energy                   =   -0.044722994195566
      * CCSD total energy                     =   -8.606054675789151


    Psi4 stopped on: Friday, 29 November 2019 05:29PM
    Psi4 wall time for execution: 0:00:03.68

*** Psi4 exiting successfully. Buy a developer a beer!
