
    -----------------------------------------------------------------------
          Psi4: An Open-Source Ab Initio Electronic Structure Package
                               Psi4 1.3.2 release

                         Git: Rev {HEAD} ecbda83 


    R. M. Parrish, L. A. Burns, D. G. A. Smith, A. C. Simmonett,
    A. E. DePrince III, E. G. Hohenstein, U. Bozkaya, A. Yu. Sokolov,
    R. Di Remigio, R. M. Richard, J. F. Gonthier, A. M. James,
    H. R. McAlexander, A. Kumar, M. Saitow, X. Wang, B. P. Pritchard,
    P. Verma, H. F. Schaefer III, K. Patkowski, R. A. King, E. F. Valeev,
    F. A. Evangelista, J. M. Turney, T. D. Crawford, and C. D. Sherrill,
    J. Chem. Theory Comput. 13(7) pp 3185--3197 (2017).
    (doi: 10.1021/acs.jctc.7b00174)


                         Additional Contributions by
    P. Kraus, H. Kruse, M. H. Lechner, M. C. Schieber, R. A. Shaw,
    A. Alenaizan, R. Galvelis, Z. L. Glick, S. Lehtola, and J. P. Misiewicz

    -----------------------------------------------------------------------


    Psi4 started on: Thursday, 07 November 2019 01:40PM

    Process ID: 4015
    Host:       Mac-mini-3.local
    PSIDATADIR: /Users/aroeira/psi4conda/share/psi4
    Memory:     500.0 MiB
    Threads:    1
    
  ==> Input File <==

--------------------------------------------------------------------------
import os
import sys
import numpy as np
from HTCCSD import HTCCSD

molecule mol {
    0 1
    H 
    Li 1 0.9
    symmetry c1
}

set {
    BASIS         sto-3g
    REFERENCE     RHF
    SCF_TYPE      PK
    SOSCF         True
    E_CONVERGENCE 12
    MAXITER       100
    MAX_ATTEMPTS  10
    GUESS         READ
    R_CONVERGENCE 10
}

X = HTCCSD(mol)

X.HTCCSD('full', CC_CONV=8, MP2_GUESS=False, RELAX_T3=True)

print('CAS energy:   {:<5.10f}'.format(X.Ecas))
print('CCSD Energy:  {:<5.10f}'.format(energy('ccsd')))
--------------------------------------------------------------------------

*** tstart() called on Mac-mini-3.local
*** at Thu Nov  7 13:40:56 2019

   => Loading Basis Set <=

    Name: STO-3G
    Role: ORBITAL
    Keyword: BASIS
    atoms 1 entry H          line    19 file /Users/aroeira/psi4conda/share/psi4/basis/sto-3g.gbs 
    atoms 2 entry LI         line    31 file /Users/aroeira/psi4conda/share/psi4/basis/sto-3g.gbs 


         ---------------------------------------------------------
                                   SCF
               by Justin Turney, Rob Parrish, Andy Simmonett
                          and Daniel G. A. Smith
                              RHF Reference
                        1 Threads,    500 MiB Core
         ---------------------------------------------------------

  ==> Geometry <==

    Molecular point group: c1
    Full point group: C_inf_v

    Geometry (in Angstrom), charge = 0, multiplicity = 1:

       Center              X                  Y                   Z               Mass       
    ------------   -----------------  -----------------  -----------------  -----------------
         H            0.000000000000     0.000000000000    -0.786956390889     1.007825032230
         LI           0.000000000000     0.000000000000     0.113043609111     7.016003436600

  Running in c1 symmetry.

  Rotational constants: A = ************  B =     23.61664  C =     23.61664 [cm^-1]
  Rotational constants: A = ************  B = 708009.16923  C = 708009.16923 [MHz]
  Nuclear repulsion =    1.763924035566667

  Charge       = 0
  Multiplicity = 1
  Electrons    = 4
  Nalpha       = 2
  Nbeta        = 2

  ==> Algorithm <==

  SCF Algorithm Type is PK.
  DIIS enabled.
  MOM disabled.
  Fractional occupation disabled.
  Guess Type is READ.
  Energy threshold   = 1.00e-12
  Density threshold  = 1.00e-06
  Integral threshold = 0.00e+00

  ==> Primary Basis <==

  Basis Set: STO-3G
    Blend: STO-3G
    Number of shells: 4
    Number of basis function: 6
    Number of Cartesian functions: 6
    Spherical Harmonics?: true
    Max angular momentum: 1

  Unable to find file 180, defaulting to SAD guess.
  ==> Pre-Iterations <==

   -------------------------------------------------------
    Irrep   Nso     Nmo     Nalpha   Nbeta   Ndocc  Nsocc
   -------------------------------------------------------
     A          6       6       0       0       0       0
   -------------------------------------------------------
    Total       6       6       2       2       2       0
   -------------------------------------------------------

  ==> Integral Setup <==

  Using in-core PK algorithm.
   Calculation information:
      Number of atoms:                   2
      Number of AO shells:               4
      Number of primitives:             12
      Number of atomic orbitals:         6
      Number of basis functions:         6

      Integral cutoff                 1.00e-12
      Number of threads:                 1

  Performing in-core PK
  Using 462 doubles for integral storage.
  We computed 55 shell quartets total.
  Whereas there are 55 unique shell quartets.

  ==> DiskJK: Disk-Based J/K Matrices <==

    J tasked:                  Yes
    K tasked:                  Yes
    wK tasked:                  No
    Memory [MiB]:              375
    Schwarz Cutoff:          1E-12

    OpenMP threads:              1

  Minimum eigenvalue in the overlap matrix is 2.2344600396E-01.
  Using Symmetric Orthogonalization.

  SCF Guess: Superposition of Atomic Densities via on-the-fly atomic UHF.

  ==> Iterations <==

                        Total Energy        Delta E     RMS |[F,P]|

   @RHF iter SAD:    -7.54335978009420   -7.54336e+00   0.00000e+00 
   @RHF iter   1:    -7.70007982140496   -1.56720e-01   1.19788e-02 DIIS
   @RHF iter   2:    -7.70564896265654   -5.56914e-03   1.12308e-03 DIIS
   @RHF iter   3:    -7.70573327104430   -8.43084e-05   3.12528e-04 SOSCF, nmicro=4
   @RHF iter   4:    -7.70575334003503   -2.00690e-05   2.44157e-06 SOSCF, nmicro=4
   @RHF iter   5:    -7.70575334045688   -4.21846e-10   3.87071e-10 SOSCF, nmicro=2
   @RHF iter   6:    -7.70575334045688    0.00000e+00   2.46159e-11 SOSCF, nmicro=conv
  Energy and wave function converged.


  ==> Post-Iterations <==

    Orbital Energies [Eh]
    ---------------------

    Doubly Occupied:                                                      

       1A     -2.396141     2A     -0.313846  

    Virtual:                                                              

       3A      0.073591     4A      0.154684     5A      0.154684  
       6A      0.601109  

    Final Occupation by Irrep:
              A 
    DOCC [     2 ]

  @RHF Final Energy:    -7.70575334045688

   => Energetics <=

    Nuclear Repulsion Energy =              1.7639240355666665
    One-Electron Energy =                 -13.5193792680595735
    Two-Electron Energy =                   4.0497018920360279
    Total Energy =                         -7.7057533404568783

Computation Completed


Properties will be evaluated at   0.000000,   0.000000,   0.000000 [a0]

Properties computed using the SCF density matrix

  Nuclear Dipole Moment: [e a0]
     X:     0.0000      Y:     0.0000      Z:    -0.8463

  Electronic Dipole Moment: [e a0]
     X:     0.0000      Y:     0.0000      Z:     2.7510

  Dipole Moment: [e a0]
     X:     0.0000      Y:     0.0000      Z:     1.9047     Total:     1.9047

  Dipole Moment: [D]
     X:     0.0000      Y:     0.0000      Z:     4.8413     Total:     4.8413


*** tstop() called on Mac-mini-3.local at Thu Nov  7 13:40:56 2019
Module time:
	user time   =       0.25 seconds =       0.00 minutes
	system time =       0.02 seconds =       0.00 minutes
	total time  =          0 seconds =       0.00 minutes
Total time:
	user time   =       0.25 seconds =       0.00 minutes
	system time =       0.02 seconds =       0.00 minutes
	total time  =          0 seconds =       0.00 minutes

*** tstart() called on Mac-mini-3.local
*** at Thu Nov  7 13:40:58 2019

   => Loading Basis Set <=

    Name: STO-3G
    Role: ORBITAL
    Keyword: BASIS
    atoms 1 entry H          line    19 file /Users/aroeira/psi4conda/share/psi4/basis/sto-3g.gbs 
    atoms 2 entry LI         line    31 file /Users/aroeira/psi4conda/share/psi4/basis/sto-3g.gbs 


         ---------------------------------------------------------
                                   SCF
               by Justin Turney, Rob Parrish, Andy Simmonett
                          and Daniel G. A. Smith
                              RHF Reference
                        1 Threads,    500 MiB Core
         ---------------------------------------------------------

  ==> Geometry <==

    Molecular point group: c1
    Full point group: C_inf_v

    Geometry (in Angstrom), charge = 0, multiplicity = 1:

       Center              X                  Y                   Z               Mass       
    ------------   -----------------  -----------------  -----------------  -----------------
         H            0.000000000000     0.000000000000    -0.786956390889     1.007825032230
         LI           0.000000000000     0.000000000000     0.113043609111     7.016003436600

  Running in c1 symmetry.

  Rotational constants: A = ************  B =     23.61664  C =     23.61664 [cm^-1]
  Rotational constants: A = ************  B = 708009.16923  C = 708009.16923 [MHz]
  Nuclear repulsion =    1.763924035566667

  Charge       = 0
  Multiplicity = 1
  Electrons    = 4
  Nalpha       = 2
  Nbeta        = 2

  ==> Algorithm <==

  SCF Algorithm Type is PK.
  DIIS enabled.
  MOM disabled.
  Fractional occupation disabled.
  Guess Type is READ.
  Energy threshold   = 1.00e-12
  Density threshold  = 1.00e-08
  Integral threshold = 0.00e+00

  ==> Primary Basis <==

  Basis Set: STO-3G
    Blend: STO-3G
    Number of shells: 4
    Number of basis function: 6
    Number of Cartesian functions: 6
    Spherical Harmonics?: true
    Max angular momentum: 1

   => Loading Basis Set <=

    Name: STO-3G
    Role: ORBITAL
    Keyword: BASIS
    atoms 1 entry H          line    19 file /Users/aroeira/psi4conda/share/psi4/basis/sto-3g.gbs 
    atoms 2 entry LI         line    31 file /Users/aroeira/psi4conda/share/psi4/basis/sto-3g.gbs 

  Reading orbitals from file 180, no projection.

  ==> Pre-Iterations <==

   -------------------------------------------------------
    Irrep   Nso     Nmo     Nalpha   Nbeta   Ndocc  Nsocc
   -------------------------------------------------------
     A          6       6       0       0       0       0
   -------------------------------------------------------
    Total       6       6       2       2       2       0
   -------------------------------------------------------

  ==> Integral Setup <==

  Using in-core PK algorithm.
   Calculation information:
      Number of atoms:                   2
      Number of AO shells:               4
      Number of primitives:             12
      Number of atomic orbitals:         6
      Number of basis functions:         6

      Integral cutoff                 1.00e-12
      Number of threads:                 1

  Performing in-core PK
  Using 462 doubles for integral storage.
  We computed 55 shell quartets total.
  Whereas there are 55 unique shell quartets.

  ==> DiskJK: Disk-Based J/K Matrices <==

    J tasked:                  Yes
    K tasked:                  Yes
    wK tasked:                  No
    Memory [MiB]:              375
    Schwarz Cutoff:          1E-12

    OpenMP threads:              1

  Minimum eigenvalue in the overlap matrix is 2.2344600396E-01.
  Using Symmetric Orthogonalization.

  SCF Guess: Orbitals guess was supplied from a previous computation.

  ==> Iterations <==

                        Total Energy        Delta E     RMS |[F,P]|

   @RHF iter   0:    -7.70575334045688   -7.70575e+00   1.32081e-11 
   @RHF iter   1:    -7.70575334045688    8.88178e-16   7.70990e-12 DIIS
  Energy and wave function converged.


  ==> Post-Iterations <==

    Orbital Energies [Eh]
    ---------------------

    Doubly Occupied:                                                      

       1A     -2.396141     2A     -0.313846  

    Virtual:                                                              

       3A      0.073591     4A      0.154684     5A      0.154684  
       6A      0.601109  

    Final Occupation by Irrep:
              A 
    DOCC [     2 ]

  @RHF Final Energy:    -7.70575334045688

   => Energetics <=

    Nuclear Repulsion Energy =              1.7639240355666665
    One-Electron Energy =                 -13.5193792680716776
    Two-Electron Energy =                   4.0497018920481347
    Total Energy =                         -7.7057533404568757

Computation Completed


Properties will be evaluated at   0.000000,   0.000000,   0.000000 [a0]

Properties computed using the SCF density matrix

  Nuclear Dipole Moment: [e a0]
     X:     0.0000      Y:     0.0000      Z:    -0.8463

  Electronic Dipole Moment: [e a0]
     X:     0.0000      Y:     0.0000      Z:     2.7510

  Dipole Moment: [e a0]
     X:     0.0000      Y:     0.0000      Z:     1.9047     Total:     1.9047

  Dipole Moment: [D]
     X:     0.0000      Y:     0.0000      Z:     4.8413     Total:     4.8413


*** tstop() called on Mac-mini-3.local at Thu Nov  7 13:40:58 2019
Module time:
	user time   =       0.10 seconds =       0.00 minutes
	system time =       0.01 seconds =       0.00 minutes
	total time  =          0 seconds =       0.00 minutes
Total time:
	user time   =       1.85 seconds =       0.03 minutes
	system time =       0.05 seconds =       0.00 minutes
	total time  =          2 seconds =       0.03 minutes
 MINTS: Wrapper to libmints.
   by Justin Turney

   Calculation information:
      Number of threads:                 1
      Number of atoms:                   2
      Number of AO shells:               4
      Number of SO shells:               4
      Number of primitives:             12
      Number of atomic orbitals:         6
      Number of basis functions:         6

      Number of irreps:                  1
      Integral cutoff                 0.00e+00
      Number of functions per irrep: [   6 ]

 OEINTS: Overlap, kinetic, potential, dipole, and quadrupole integrals
         stored in file 35.

      Computing two-electron integrals...done
      Computed 83 non-zero two-electron integrals.
        Stored in file 33.


*** tstart() called on Mac-mini-3.local
*** at Thu Nov  7 13:40:58 2019


	Wfn Parameters:
	--------------------
	Wavefunction         = CCSD
	Number of irreps     = 1
	Number of MOs        = 6
	Number of active MOs = 6
	AO-Basis             = NONE
	Semicanonical        = false
	Reference            = RHF
	Print Level          = 1

	IRREP	# MOs	# FZDC	# DOCC	# SOCC	# VIRT	# FZVR
	-----	-----	------	------	------	------	------
	 A	   6	    0	    2	    0	    4	    0
	Transforming integrals...
	IWL integrals will be deleted.
	(OO|OO)...
	Presorting SO-basis two-electron integrals.
	Sorting File: SO Ints (nn|nn) nbuckets = 1
	Transforming the one-electron integrals and constructing Fock matrices
	Starting first half-transformation.
	Sorting half-transformed integrals.
	First half integral transformation complete.
	Starting second half-transformation.
	Two-electron integral transformation complete.
	(OO|OV)...
	Starting second half-transformation.
	Two-electron integral transformation complete.
	(OO|VV)...
	Starting second half-transformation.
	Two-electron integral transformation complete.
	(OV|OO)...
	Starting first half-transformation.
	Sorting half-transformed integrals.
	First half integral transformation complete.
	Starting second half-transformation.
	Two-electron integral transformation complete.
	(OV|OV)...
	Starting second half-transformation.
	Two-electron integral transformation complete.
	(OV|VV)...
	Starting second half-transformation.
	Two-electron integral transformation complete.
	(VV|OO)...
	Starting first half-transformation.
	Sorting half-transformed integrals.
	First half integral transformation complete.
	Starting second half-transformation.
	Two-electron integral transformation complete.
	(VV|OV)...
	Starting second half-transformation.
	Two-electron integral transformation complete.
	(VV|VV)...
	Starting second half-transformation.
	Two-electron integral transformation complete.
	Frozen core energy     =      0.00000000000000

	Size of irrep 0 of <ab|cd> integrals:      0.000 (MW) /      0.002 (MB)
	Total:                                     0.000 (MW) /      0.002 (MB)

	Size of irrep 0 of <ia|bc> integrals:      0.000 (MW) /      0.001 (MB)
	Total:                                     0.000 (MW) /      0.001 (MB)

	Size of irrep 0 of tijab amplitudes:       0.000 (MW) /      0.001 (MB)
	Total:                                     0.000 (MW) /      0.001 (MB)

	Nuclear Rep. energy          =      1.76392403556667
	SCF energy                   =     -7.70575334045688
	One-electron energy          =    -13.51937926807754
	Two-electron energy          =      4.04970189205399
	Reference energy             =     -7.70575334045688

*** tstop() called on Mac-mini-3.local at Thu Nov  7 13:40:58 2019
Module time:
	user time   =       0.01 seconds =       0.00 minutes
	system time =       0.06 seconds =       0.00 minutes
	total time  =          0 seconds =       0.00 minutes
Total time:
	user time   =       1.87 seconds =       0.03 minutes
	system time =       0.12 seconds =       0.00 minutes
	total time  =          2 seconds =       0.03 minutes
            **************************
            *                        *
            *        CCENERGY        *
            *                        *
            **************************

    Nuclear Rep. energy (wfn)     =    1.763924035566667
    SCF energy          (wfn)     =   -7.705753340456876
    Reference energy    (file100) =   -7.705753340456885

    Input parameters:
    -----------------
    Wave function   =     CCSD
    Reference wfn   =     RHF
    Brueckner       =     No
    Memory (Mbytes) =     524.3
    Maxiter         =    100
    R_Convergence   =     1.0e-10
    E_Convergence   =     1.0e-12
    Restart         =     Yes
    DIIS            =     Yes
    AO Basis        =     NONE
    ABCD            =     NEW
    Cache Level     =     2
    Cache Type      =     LOW
    Print Level     =     1
    Num. of threads =     1
    # Amps to Print =     10
    Print MP2 Amps? =     No
    Analyze T2 Amps =     No
    Print Pair Ener =     No
    Local CC        =     No
    SCS-MP2         =     False
    SCSN-MP2        =     False
    SCS-CCSD        =     False

MP2 correlation energy -0.0118063427518903
                Solving CC Amplitude Equations
                ------------------------------
  Iter             Energy              RMS        T1Diag      D1Diag    New D1Diag    D2Diag
  ----     ---------------------    ---------   ----------  ----------  ----------   --------
     0        -0.011806342751890    0.000e+00    0.000000    0.000000    0.000000    0.086186
     1        -0.015532656706609    2.901e-02    0.003349    0.006698    0.006698    0.113919
     2        -0.017468042291496    1.205e-02    0.008121    0.016240    0.016240    0.128725
     3        -0.017636006845879    4.904e-03    0.013868    0.027734    0.027734    0.131296
     4        -0.017672855254122    1.124e-03    0.015323    0.030644    0.030644    0.132007
     5        -0.017665754273723    1.700e-04    0.015411    0.030820    0.030820    0.132007
     6        -0.017664425738779    3.522e-05    0.015416    0.030831    0.030831    0.131997
     7        -0.017664830889838    3.273e-06    0.015420    0.030838    0.030838    0.132000
     8        -0.017664788982372    4.692e-07    0.015419    0.030837    0.030837    0.132000
     9        -0.017664786856587    3.468e-08    0.015419    0.030837    0.030837    0.132000
    10        -0.017664786854545    3.186e-09    0.015419    0.030837    0.030837    0.132000
    11        -0.017664786889715    3.582e-10    0.015419    0.030837    0.030837    0.132000
    12        -0.017664786887787    2.854e-11    0.015419    0.030837    0.030837    0.132000
    13        -0.017664786887591    7.097e-12    0.015419    0.030837    0.030837    0.132000
    14        -0.017664786887549    5.693e-13    0.015419    0.030837    0.030837    0.132000

    Iterations converged.


    Largest TIA Amplitudes:
              1   0        -0.0308230894
              0   0        -0.0007565161
              1   3        -0.0005210870
              0   3        -0.0003443667

    Largest TIjAb Amplitudes:
      1   1   3   3        -0.0994349028
      1   1   0   3        -0.0432478833
      1   1   3   0        -0.0432478833
      1   1   1   1        -0.0399376778
      1   1   2   2        -0.0399376778
      1   1   0   0        -0.0221045119
      0   1   0   3        -0.0054428099
      1   0   3   0        -0.0054428099
      0   1   3   3        -0.0036169312
      1   0   3   3        -0.0036169312

    SCF energy       (wfn)                    =   -7.705753340456876
    Reference energy (file100)                =   -7.705753340456885

    Opposite-spin MP2 correlation energy      =   -0.011739228866871
    Same-spin MP2 correlation energy          =   -0.000067113885020
    MP2 correlation energy                    =   -0.011806342751890
      * MP2 total energy                      =   -7.717559683208775

    Opposite-spin CCSD correlation energy     =   -0.017595629406899
    Same-spin CCSD correlation energy         =   -0.000069157480650
    CCSD correlation energy                   =   -0.017664786887549
      * CCSD total energy                     =   -7.723418127344433


    Psi4 stopped on: Thursday, 07 November 2019 01:40PM
    Psi4 wall time for execution: 0:00:03.03

*** Psi4 exiting successfully. Buy a developer a beer!
