
    -----------------------------------------------------------------------
          Psi4: An Open-Source Ab Initio Electronic Structure Package
                               Psi4 1.3.2 release

                         Git: Rev {HEAD} ecbda83 


    R. M. Parrish, L. A. Burns, D. G. A. Smith, A. C. Simmonett,
    A. E. DePrince III, E. G. Hohenstein, U. Bozkaya, A. Yu. Sokolov,
    R. Di Remigio, R. M. Richard, J. F. Gonthier, A. M. James,
    H. R. McAlexander, A. Kumar, M. Saitow, X. Wang, B. P. Pritchard,
    P. Verma, H. F. Schaefer III, K. Patkowski, R. A. King, E. F. Valeev,
    F. A. Evangelista, J. M. Turney, T. D. Crawford, and C. D. Sherrill,
    J. Chem. Theory Comput. 13(7) pp 3185--3197 (2017).
    (doi: 10.1021/acs.jctc.7b00174)


                         Additional Contributions by
    P. Kraus, H. Kruse, M. H. Lechner, M. C. Schieber, R. A. Shaw,
    A. Alenaizan, R. Galvelis, Z. L. Glick, S. Lehtola, and J. P. Misiewicz

    -----------------------------------------------------------------------


    Psi4 started on: Wednesday, 23 October 2019 04:31PM

    Process ID: 65444
    Host:       Mac-mini-3.local
    PSIDATADIR: /Users/aroeira/psi4conda/share/psi4
    Memory:     500.0 MiB
    Threads:    1
    
  ==> Input File <==

--------------------------------------------------------------------------
import os
import sys
import numpy as np
from HTCCSD import HTCCSD

molecule mol {
    unit bohr
    0 1
    N 
    N 1 2.074
    symmetry c1
}

set {
    BASIS         3-21g
    REFERENCE     RHF
    SCF_TYPE      PK
    SOSCF         True
    E_CONVERGENCE 8
    MAXITER       100
    MAX_ATTEMPTS  10
    GUESS         READ
}

X = HTCCSD(mol)

X.HTCCSD([4,5,6,7,8,9], CC_CONV=8)

print('CCSD Energy: {:<5.10f}'.format(energy('ccsd')))
--------------------------------------------------------------------------

*** tstart() called on Mac-mini-3.local
*** at Wed Oct 23 16:31:19 2019

   => Loading Basis Set <=

    Name: 3-21G
    Role: ORBITAL
    Keyword: BASIS
    atoms 1-2 entry N          line    79 file /Users/aroeira/psi4conda/share/psi4/basis/3-21g.gbs 


         ---------------------------------------------------------
                                   SCF
               by Justin Turney, Rob Parrish, Andy Simmonett
                          and Daniel G. A. Smith
                              RHF Reference
                        1 Threads,    500 MiB Core
         ---------------------------------------------------------

  ==> Geometry <==

    Molecular point group: c1
    Full point group: D_inf_h

    Geometry (in Bohr), charge = 0, multiplicity = 1:

       Center              X                  Y                   Z               Mass       
    ------------   -----------------  -----------------  -----------------  -----------------
         N            0.000000000000     0.000000000000    -1.037000000000    14.003074004430
         N            0.000000000000     0.000000000000     1.037000000000    14.003074004430

  Running in c1 symmetry.

  Rotational constants: A = ************  B =      1.99886  C =      1.99886 [cm^-1]
  Rotational constants: A = ************  B =  59924.44789  C =  59924.44789 [MHz]
  Nuclear repulsion =   23.625843780135007

  Charge       = 0
  Multiplicity = 1
  Electrons    = 14
  Nalpha       = 7
  Nbeta        = 7

  ==> Algorithm <==

  SCF Algorithm Type is PK.
  DIIS enabled.
  MOM disabled.
  Fractional occupation disabled.
  Guess Type is READ.
  Energy threshold   = 1.00e-08
  Density threshold  = 1.00e-06
  Integral threshold = 0.00e+00

  ==> Primary Basis <==

  Basis Set: 3-21G
    Blend: 3-21G
    Number of shells: 10
    Number of basis function: 18
    Number of Cartesian functions: 18
    Spherical Harmonics?: false
    Max angular momentum: 1

  Unable to find file 180, defaulting to SAD guess.
  ==> Pre-Iterations <==

   -------------------------------------------------------
    Irrep   Nso     Nmo     Nalpha   Nbeta   Ndocc  Nsocc
   -------------------------------------------------------
     A         18      18       0       0       0       0
   -------------------------------------------------------
    Total      18      18       7       7       7       0
   -------------------------------------------------------

  ==> Integral Setup <==

  Using in-core PK algorithm.
   Calculation information:
      Number of atoms:                   2
      Number of AO shells:              10
      Number of primitives:             18
      Number of atomic orbitals:        18
      Number of basis functions:        18

      Integral cutoff                 1.00e-12
      Number of threads:                 1

  Performing in-core PK
  Using 29412 doubles for integral storage.
  We computed 1539 shell quartets total.
  Whereas there are 1540 unique shell quartets.

  ==> DiskJK: Disk-Based J/K Matrices <==

    J tasked:                  Yes
    K tasked:                  Yes
    wK tasked:                  No
    Memory [MiB]:              375
    Schwarz Cutoff:          1E-12

    OpenMP threads:              1

  Minimum eigenvalue in the overlap matrix is 1.6482321399E-02.
  Using Symmetric Orthogonalization.

  SCF Guess: Superposition of Atomic Densities via on-the-fly atomic UHF.

  ==> Iterations <==

                        Total Energy        Delta E     RMS |[F,P]|

   @RHF iter SAD:  -107.53106964160241   -1.07531e+02   0.00000e+00 
   @RHF iter   1:  -108.29315610110953   -7.62086e-01   6.43775e-03 DIIS
   @RHF iter   2:  -108.29993466438773   -6.77856e-03   1.28239e-03 DIIS
   @RHF iter   3:  -108.30027169940369   -3.37035e-04   2.48910e-04 SOSCF, nmicro=4
   @RHF iter   4:  -108.30028252901931   -1.08296e-05   3.61351e-07 SOSCF, nmicro=4
   @RHF iter   5:  -108.30028252903122   -1.19087e-11   1.67279e-09 SOSCF, nmicro=conv
  Energy and wave function converged.


  ==> Post-Iterations <==

    Orbital Energies [Eh]
    ---------------------

    Doubly Occupied:                                                      

       1A    -15.614903     2A    -15.614294     3A     -1.507641  
       4A     -0.761700     5A     -0.614451     6A     -0.613580  
       7A     -0.613580  

    Virtual:                                                              

       8A      0.177687     9A      0.177687    10A      0.747571  
      11A      1.206113    12A      1.279836    13A      1.279836  
      14A      1.418063    15A      1.418063    16A      1.472323  
      17A      1.848965    18A      2.563471  

    Final Occupation by Irrep:
              A 
    DOCC [     7 ]

  @RHF Final Energy:  -108.30028252903122

   => Energetics <=

    Nuclear Repulsion Energy =             23.6258437801350070
    One-Electron Energy =                -193.1719551104530979
    Two-Electron Energy =                  61.2458288012868763
    Total Energy =                       -108.3002825290312217

Computation Completed


Properties will be evaluated at   0.000000,   0.000000,   0.000000 [a0]

Properties computed using the SCF density matrix

  Nuclear Dipole Moment: [e a0]
     X:     0.0000      Y:     0.0000      Z:     0.0000

  Electronic Dipole Moment: [e a0]
     X:     0.0000      Y:    -0.0000      Z:     0.0000

  Dipole Moment: [e a0]
     X:     0.0000      Y:    -0.0000      Z:     0.0000     Total:     0.0000

  Dipole Moment: [D]
     X:     0.0000      Y:    -0.0000      Z:     0.0000     Total:     0.0000


*** tstop() called on Mac-mini-3.local at Wed Oct 23 16:31:19 2019
Module time:
	user time   =       0.20 seconds =       0.00 minutes
	system time =       0.02 seconds =       0.00 minutes
	total time  =          0 seconds =       0.00 minutes
Total time:
	user time   =       0.20 seconds =       0.00 minutes
	system time =       0.02 seconds =       0.00 minutes
	total time  =          0 seconds =       0.00 minutes

*** tstart() called on Mac-mini-3.local
*** at Wed Oct 23 16:32:29 2019

   => Loading Basis Set <=

    Name: 3-21G
    Role: ORBITAL
    Keyword: BASIS
    atoms 1-2 entry N          line    79 file /Users/aroeira/psi4conda/share/psi4/basis/3-21g.gbs 


         ---------------------------------------------------------
                                   SCF
               by Justin Turney, Rob Parrish, Andy Simmonett
                          and Daniel G. A. Smith
                              RHF Reference
                        1 Threads,    500 MiB Core
         ---------------------------------------------------------

  ==> Geometry <==

    Molecular point group: c1
    Full point group: D_inf_h

    Geometry (in Bohr), charge = 0, multiplicity = 1:

       Center              X                  Y                   Z               Mass       
    ------------   -----------------  -----------------  -----------------  -----------------
         N            0.000000000000     0.000000000000    -1.037000000000    14.003074004430
         N            0.000000000000     0.000000000000     1.037000000000    14.003074004430

  Running in c1 symmetry.

  Rotational constants: A = ************  B =      1.99886  C =      1.99886 [cm^-1]
  Rotational constants: A = ************  B =  59924.44789  C =  59924.44789 [MHz]
  Nuclear repulsion =   23.625843780135007

  Charge       = 0
  Multiplicity = 1
  Electrons    = 14
  Nalpha       = 7
  Nbeta        = 7

  ==> Algorithm <==

  SCF Algorithm Type is PK.
  DIIS enabled.
  MOM disabled.
  Fractional occupation disabled.
  Guess Type is READ.
  Energy threshold   = 1.00e-08
  Density threshold  = 1.00e-08
  Integral threshold = 0.00e+00

  ==> Primary Basis <==

  Basis Set: 3-21G
    Blend: 3-21G
    Number of shells: 10
    Number of basis function: 18
    Number of Cartesian functions: 18
    Spherical Harmonics?: false
    Max angular momentum: 1

   => Loading Basis Set <=

    Name: 3-21G
    Role: ORBITAL
    Keyword: BASIS
    atoms 1-2 entry N          line    79 file /Users/aroeira/psi4conda/share/psi4/basis/3-21g.gbs 

  Reading orbitals from file 180, no projection.

  ==> Pre-Iterations <==

   -------------------------------------------------------
    Irrep   Nso     Nmo     Nalpha   Nbeta   Ndocc  Nsocc
   -------------------------------------------------------
     A         18      18       0       0       0       0
   -------------------------------------------------------
    Total      18      18       7       7       7       0
   -------------------------------------------------------

  ==> Integral Setup <==

  Using in-core PK algorithm.
   Calculation information:
      Number of atoms:                   2
      Number of AO shells:              10
      Number of primitives:             18
      Number of atomic orbitals:        18
      Number of basis functions:        18

      Integral cutoff                 1.00e-12
      Number of threads:                 1

  Performing in-core PK
  Using 29412 doubles for integral storage.
  We computed 1539 shell quartets total.
  Whereas there are 1540 unique shell quartets.

  ==> DiskJK: Disk-Based J/K Matrices <==

    J tasked:                  Yes
    K tasked:                  Yes
    wK tasked:                  No
    Memory [MiB]:              375
    Schwarz Cutoff:          1E-12

    OpenMP threads:              1

  Minimum eigenvalue in the overlap matrix is 1.6482321399E-02.
  Using Symmetric Orthogonalization.

  SCF Guess: Orbitals guess was supplied from a previous computation.

  ==> Iterations <==

                        Total Energy        Delta E     RMS |[F,P]|

   @RHF iter   0:  -108.30028252903126   -1.08300e+02   1.92437e-10 
   @RHF iter   1:  -108.30028252903112    1.42109e-13   4.66756e-11 DIIS
  Energy and wave function converged.


  ==> Post-Iterations <==

    Orbital Energies [Eh]
    ---------------------

    Doubly Occupied:                                                      

       1A    -15.614903     2A    -15.614294     3A     -1.507641  
       4A     -0.761700     5A     -0.614451     6A     -0.613580  
       7A     -0.613580  

    Virtual:                                                              

       8A      0.177687     9A      0.177687    10A      0.747571  
      11A      1.206113    12A      1.279836    13A      1.279836  
      14A      1.418063    15A      1.418063    16A      1.472323  
      17A      1.848965    18A      2.563471  

    Final Occupation by Irrep:
              A 
    DOCC [     7 ]

  @RHF Final Energy:  -108.30028252903112

   => Energetics <=

    Nuclear Repulsion Energy =             23.6258437801350070
    One-Electron Energy =                -193.1719551001158948
    Two-Electron Energy =                  61.2458287909497727
    Total Energy =                       -108.3002825290311222

Computation Completed


Properties will be evaluated at   0.000000,   0.000000,   0.000000 [a0]

Properties computed using the SCF density matrix

  Nuclear Dipole Moment: [e a0]
     X:     0.0000      Y:     0.0000      Z:     0.0000

  Electronic Dipole Moment: [e a0]
     X:     0.0000      Y:    -0.0000      Z:     0.0000

  Dipole Moment: [e a0]
     X:     0.0000      Y:    -0.0000      Z:     0.0000     Total:     0.0000

  Dipole Moment: [D]
     X:     0.0000      Y:    -0.0000      Z:     0.0000     Total:     0.0000


*** tstop() called on Mac-mini-3.local at Wed Oct 23 16:32:29 2019
Module time:
	user time   =       0.10 seconds =       0.00 minutes
	system time =       0.01 seconds =       0.00 minutes
	total time  =          0 seconds =       0.00 minutes
Total time:
	user time   =      61.84 seconds =       1.03 minutes
	system time =       7.97 seconds =       0.13 minutes
	total time  =         70 seconds =       1.17 minutes
 MINTS: Wrapper to libmints.
   by Justin Turney

   Calculation information:
      Number of threads:                 1
      Number of atoms:                   2
      Number of AO shells:              10
      Number of SO shells:              10
      Number of primitives:             18
      Number of atomic orbitals:        18
      Number of basis functions:        18

      Number of irreps:                  1
      Integral cutoff                 0.00e+00
      Number of functions per irrep: [  18 ]

 OEINTS: Overlap, kinetic, potential, dipole, and quadrupole integrals
         stored in file 35.

      Computing two-electron integrals...done
      Computed 4350 non-zero two-electron integrals.
        Stored in file 33.


*** tstart() called on Mac-mini-3.local
*** at Wed Oct 23 16:32:29 2019


	Wfn Parameters:
	--------------------
	Wavefunction         = CCSD
	Number of irreps     = 1
	Number of MOs        = 18
	Number of active MOs = 18
	AO-Basis             = NONE
	Semicanonical        = false
	Reference            = RHF
	Print Level          = 1

	IRREP	# MOs	# FZDC	# DOCC	# SOCC	# VIRT	# FZVR
	-----	-----	------	------	------	------	------
	 A	   18	    0	    7	    0	    11	    0
	Transforming integrals...
	IWL integrals will be deleted.
	(OO|OO)...
	Presorting SO-basis two-electron integrals.
	Sorting File: SO Ints (nn|nn) nbuckets = 1
	Transforming the one-electron integrals and constructing Fock matrices
	Starting first half-transformation.
	Sorting half-transformed integrals.
	First half integral transformation complete.
	Starting second half-transformation.
	Two-electron integral transformation complete.
	(OO|OV)...
	Starting second half-transformation.
	Two-electron integral transformation complete.
	(OO|VV)...
	Starting second half-transformation.
	Two-electron integral transformation complete.
	(OV|OO)...
	Starting first half-transformation.
	Sorting half-transformed integrals.
	First half integral transformation complete.
	Starting second half-transformation.
	Two-electron integral transformation complete.
	(OV|OV)...
	Starting second half-transformation.
	Two-electron integral transformation complete.
	(OV|VV)...
	Starting second half-transformation.
	Two-electron integral transformation complete.
	(VV|OO)...
	Starting first half-transformation.
	Sorting half-transformed integrals.
	First half integral transformation complete.
	Starting second half-transformation.
	Two-electron integral transformation complete.
	(VV|OV)...
	Starting second half-transformation.
	Two-electron integral transformation complete.
	(VV|VV)...
	Starting second half-transformation.
	Two-electron integral transformation complete.
	Frozen core energy     =      0.00000000000000

	Size of irrep 0 of <ab|cd> integrals:      0.015 (MW) /      0.117 (MB)
	Total:                                     0.015 (MW) /      0.117 (MB)

	Size of irrep 0 of <ia|bc> integrals:      0.009 (MW) /      0.075 (MB)
	Total:                                     0.009 (MW) /      0.075 (MB)

	Size of irrep 0 of tijab amplitudes:       0.006 (MW) /      0.047 (MB)
	Total:                                     0.006 (MW) /      0.047 (MB)

	Nuclear Rep. energy          =     23.62584378013501
	SCF energy                   =   -108.30028252903112
	One-electron energy          =   -193.17195509972348
	Two-electron energy          =     61.24582879055712
	Reference energy             =   -108.30028252903136

*** tstop() called on Mac-mini-3.local at Wed Oct 23 16:32:29 2019
Module time:
	user time   =       0.02 seconds =       0.00 minutes
	system time =       0.06 seconds =       0.00 minutes
	total time  =          0 seconds =       0.00 minutes
Total time:
	user time   =      61.87 seconds =       1.03 minutes
	system time =       8.04 seconds =       0.13 minutes
	total time  =         70 seconds =       1.17 minutes
            **************************
            *                        *
            *        CCENERGY        *
            *                        *
            **************************

    Nuclear Rep. energy (wfn)     =   23.625843780135007
    SCF energy          (wfn)     = -108.300282529031122
    Reference energy    (file100) = -108.300282529031364

    Input parameters:
    -----------------
    Wave function   =     CCSD
    Reference wfn   =     RHF
    Brueckner       =     No
    Memory (Mbytes) =     524.3
    Maxiter         =    100
    R_Convergence   =     1.0e-07
    E_Convergence   =     1.0e-08
    Restart         =     Yes
    DIIS            =     Yes
    AO Basis        =     NONE
    ABCD            =     NEW
    Cache Level     =     2
    Cache Type      =     LOW
    Print Level     =     1
    Num. of threads =     1
    # Amps to Print =     10
    Print MP2 Amps? =     No
    Analyze T2 Amps =     No
    Print Pair Ener =     No
    Local CC        =     No
    SCS-MP2         =     False
    SCSN-MP2        =     False
    SCS-CCSD        =     False

MP2 correlation energy -0.2364035701590843
                Solving CC Amplitude Equations
                ------------------------------
  Iter             Energy              RMS        T1Diag      D1Diag    New D1Diag    D2Diag
  ----     ---------------------    ---------   ----------  ----------  ----------   --------
     0        -0.236403570159084    0.000e+00    0.000000    0.000000    0.000000    0.156097
     1        -0.214133599092425    5.081e-02    0.008913    0.022434    0.022434    0.149728
     2        -0.223412718804792    2.173e-02    0.008358    0.021257    0.021257    0.160443
     3        -0.225849985006026    9.262e-03    0.009041    0.023075    0.023075    0.168424
     4        -0.226395026931595    2.518e-03    0.008993    0.022994    0.022994    0.170790
     5        -0.226351089800786    2.832e-04    0.008985    0.022971    0.022971    0.170820
     6        -0.226355143767691    6.479e-05    0.008984    0.022968    0.022968    0.170833
     7        -0.226357151230858    1.632e-05    0.008984    0.022967    0.022967    0.170838
     8        -0.226356666659968    4.190e-06    0.008984    0.022967    0.022967    0.170837
     9        -0.226356837649785    1.193e-06    0.008984    0.022967    0.022967    0.170837
    10        -0.226356853873893    2.918e-07    0.008984    0.022967    0.022967    0.170837
    11        -0.226356844299856    8.070e-08    0.008984    0.022967    0.022967    0.170837
    12        -0.226356846403243    1.991e-08    0.008984    0.022967    0.022967    0.170837

    Iterations converged.


    Largest TIA Amplitudes:
              5   4         0.0222029802
              6   5        -0.0222029802
              5   5         0.0058761352
              6   4         0.0058761352
              3   8         0.0057137253
              3   2         0.0050400037
              4   9        -0.0027202184
              3  10         0.0022767152
              4   3         0.0014115381
              2   3        -0.0014047699

    Largest TIjAb Amplitudes:
      5   5   0   0        -0.1140181150
      6   6   1   1        -0.1140181150
      5   6   0   1         0.0700923728
      6   5   1   0         0.0700923728
      3   3   0   0        -0.0520001515
      3   3   1   1        -0.0520001515
      4   4   8   8        -0.0295854568
      5   6   1   0         0.0269963452
      6   5   0   1         0.0269963452
      2   5   2   0        -0.0237476311

    SCF energy       (wfn)                    = -108.300282529031122
    Reference energy (file100)                = -108.300282529031364

    Opposite-spin MP2 correlation energy      =   -0.172406192393346
    Same-spin MP2 correlation energy          =   -0.063997377765739
    MP2 correlation energy                    =   -0.236403570159084
      * MP2 total energy                      = -108.536686099190447

    Opposite-spin CCSD correlation energy     =   -0.179840150902852
    Same-spin CCSD correlation energy         =   -0.046516695500391
    CCSD correlation energy                   =   -0.226356846403243
      * CCSD total energy                     = -108.526639375434613


    Psi4 stopped on: Wednesday, 23 October 2019 04:32PM
    Psi4 wall time for execution: 0:01:10.53

*** Psi4 exiting successfully. Buy a developer a beer!
