
    -----------------------------------------------------------------------
          Psi4: An Open-Source Ab Initio Electronic Structure Package
                               Psi4 1.3.2 release

                         Git: Rev {HEAD} ecbda83 


    R. M. Parrish, L. A. Burns, D. G. A. Smith, A. C. Simmonett,
    A. E. DePrince III, E. G. Hohenstein, U. Bozkaya, A. Yu. Sokolov,
    R. Di Remigio, R. M. Richard, J. F. Gonthier, A. M. James,
    H. R. McAlexander, A. Kumar, M. Saitow, X. Wang, B. P. Pritchard,
    P. Verma, H. F. Schaefer III, K. Patkowski, R. A. King, E. F. Valeev,
    F. A. Evangelista, J. M. Turney, T. D. Crawford, and C. D. Sherrill,
    J. Chem. Theory Comput. 13(7) pp 3185--3197 (2017).
    (doi: 10.1021/acs.jctc.7b00174)


                         Additional Contributions by
    P. Kraus, H. Kruse, M. H. Lechner, M. C. Schieber, R. A. Shaw,
    A. Alenaizan, R. Galvelis, Z. L. Glick, S. Lehtola, and J. P. Misiewicz

    -----------------------------------------------------------------------


    Psi4 started on: Thursday, 07 November 2019 02:03PM

    Process ID: 925
    Host:       Mac-mini-3.local
    PSIDATADIR: /Users/aroeira/psi4conda/share/psi4
    Memory:     500.0 MiB
    Threads:    1
    
  ==> Input File <==

--------------------------------------------------------------------------
import os
import sys
import numpy as np
from HTCCSD import HTCCSD

molecule mol {
    unit bohr
    0 1
    N 
    N 1 2.074
    symmetry c1
}

set {
    BASIS         cc-pvdz
    REFERENCE     RHF
    SCF_TYPE      PK
    SOSCF         True
    E_CONVERGENCE 8
    MAXITER       100
    MAX_ATTEMPTS  10
    GUESS         READ
}

X = HTCCSD(mol)

X.HTCCSD([4,5,6,7,8,9], CC_CONV=8)

print('CAS energy:   {:<5.10f}'.format(X.Ecas))
print('CCSD Energy: {:<5.10f}'.format(energy('ccsd')))
--------------------------------------------------------------------------

*** tstart() called on Mac-mini-3.local
*** at Thu Nov  7 14:03:23 2019

   => Loading Basis Set <=

    Name: CC-PVDZ
    Role: ORBITAL
    Keyword: BASIS
    atoms 1-2 entry N          line   168 file /Users/aroeira/psi4conda/share/psi4/basis/cc-pvdz.gbs 


         ---------------------------------------------------------
                                   SCF
               by Justin Turney, Rob Parrish, Andy Simmonett
                          and Daniel G. A. Smith
                              RHF Reference
                        1 Threads,    500 MiB Core
         ---------------------------------------------------------

  ==> Geometry <==

    Molecular point group: c1
    Full point group: D_inf_h

    Geometry (in Bohr), charge = 0, multiplicity = 1:

       Center              X                  Y                   Z               Mass       
    ------------   -----------------  -----------------  -----------------  -----------------
         N            0.000000000000     0.000000000000    -1.037000000000    14.003074004430
         N            0.000000000000     0.000000000000     1.037000000000    14.003074004430

  Running in c1 symmetry.

  Rotational constants: A = ************  B =      1.99886  C =      1.99886 [cm^-1]
  Rotational constants: A = ************  B =  59924.44789  C =  59924.44789 [MHz]
  Nuclear repulsion =   23.625843780135007

  Charge       = 0
  Multiplicity = 1
  Electrons    = 14
  Nalpha       = 7
  Nbeta        = 7

  ==> Algorithm <==

  SCF Algorithm Type is PK.
  DIIS enabled.
  MOM disabled.
  Fractional occupation disabled.
  Guess Type is READ.
  Energy threshold   = 1.00e-08
  Density threshold  = 1.00e-06
  Integral threshold = 0.00e+00

  ==> Primary Basis <==

  Basis Set: CC-PVDZ
    Blend: CC-PVDZ
    Number of shells: 12
    Number of basis function: 28
    Number of Cartesian functions: 30
    Spherical Harmonics?: true
    Max angular momentum: 2

  Unable to find file 180, defaulting to SAD guess.
  ==> Pre-Iterations <==

   -------------------------------------------------------
    Irrep   Nso     Nmo     Nalpha   Nbeta   Ndocc  Nsocc
   -------------------------------------------------------
     A         28      28       0       0       0       0
   -------------------------------------------------------
    Total      28      28       7       7       7       0
   -------------------------------------------------------

  ==> Integral Setup <==

  Using in-core PK algorithm.
   Calculation information:
      Number of atoms:                   2
      Number of AO shells:              12
      Number of primitives:             44
      Number of atomic orbitals:        30
      Number of basis functions:        28

      Integral cutoff                 1.00e-12
      Number of threads:                 1

  Performing in-core PK
  Using 165242 doubles for integral storage.
  We computed 3081 shell quartets total.
  Whereas there are 3081 unique shell quartets.

  ==> DiskJK: Disk-Based J/K Matrices <==

    J tasked:                  Yes
    K tasked:                  Yes
    wK tasked:                  No
    Memory [MiB]:              375
    Schwarz Cutoff:          1E-12

    OpenMP threads:              1

  Minimum eigenvalue in the overlap matrix is 6.1316072355E-03.
  Using Symmetric Orthogonalization.

  SCF Guess: Superposition of Atomic Densities via on-the-fly atomic UHF.

  ==> Iterations <==

                        Total Energy        Delta E     RMS |[F,P]|

   @RHF iter SAD:  -108.08000487095929   -1.08080e+02   0.00000e+00 
   @RHF iter   1:  -108.94874024975297   -8.68735e-01   3.66358e-03 DIIS
   @RHF iter   2:  -108.95391274418944   -5.17249e-03   6.61155e-04 DIIS
   @RHF iter   3:  -108.95413606613012   -2.23322e-04   1.69209e-04 SOSCF, nmicro=4
   @RHF iter   4:  -108.95415346685925   -1.74007e-05   3.38103e-07 SOSCF, nmicro=5
   @RHF iter   5:  -108.95415346689623   -3.69766e-11   2.02536e-10 SOSCF, nmicro=conv
  Energy and wave function converged.


  ==> Post-Iterations <==

    Orbital Energies [Eh]
    ---------------------

    Doubly Occupied:                                                      

       1A    -15.686380     2A    -15.682974     3A     -1.471331  
       4A     -0.774043     5A     -0.626242     6A     -0.608230  
       7A     -0.608230  

    Virtual:                                                              

       8A      0.175747     9A      0.175747    10A      0.594688  
      11A      0.820022    12A      0.872167    13A      0.872167  
      14A      0.992264    15A      1.051081    16A      1.051081  
      17A      1.144666    18A      1.643402    19A      1.757337  
      20A      1.757337    21A      1.882225    22A      1.882225  
      23A      2.299102    24A      2.299102    25A      2.874682  
      26A      2.996665    27A      2.996665    28A      3.284216  

    Final Occupation by Irrep:
              A 
    DOCC [     7 ]

  @RHF Final Energy:  -108.95415346689623

   => Energetics <=

    Nuclear Repulsion Energy =             23.6258437801350070
    One-Electron Energy =                -194.2451325030553448
    Two-Electron Energy =                  61.6651352560241151
    Total Energy =                       -108.9541534668962299

Computation Completed


Properties will be evaluated at   0.000000,   0.000000,   0.000000 [a0]

Properties computed using the SCF density matrix

  Nuclear Dipole Moment: [e a0]
     X:     0.0000      Y:     0.0000      Z:     0.0000

  Electronic Dipole Moment: [e a0]
     X:    -0.0000      Y:    -0.0000      Z:    -0.0000

  Dipole Moment: [e a0]
     X:    -0.0000      Y:    -0.0000      Z:    -0.0000     Total:     0.0000

  Dipole Moment: [D]
     X:    -0.0000      Y:    -0.0000      Z:    -0.0000     Total:     0.0000


*** tstop() called on Mac-mini-3.local at Thu Nov  7 14:03:23 2019
Module time:
	user time   =       0.31 seconds =       0.01 minutes
	system time =       0.04 seconds =       0.00 minutes
	total time  =          0 seconds =       0.00 minutes
Total time:
	user time   =       0.31 seconds =       0.01 minutes
	system time =       0.04 seconds =       0.00 minutes
	total time  =          0 seconds =       0.00 minutes

Traceback (most recent call last):
  File "/Users/aroeira/psi4conda/bin/psi4", line 287, in <module>
    exec(content)
  File "<string>", line 39, in <module>
  File "/Users/aroeira/Methods/HTCC/Restricted/HTCCSD.py", line 640, in HTCCSD
    - np.einsum('ld, ijkabc -> ijklabcd', self.CAS_T1, self.CAS_T3aba)

AttributeError: 'HTCCSD' object has no attribute 'CAS_T3aaa'


Printing out the relevant lines from the Psithon --> Python processed input file:
    core.set_global_option("E_CONVERGENCE", 8)
    core.set_global_option("MAXITER", 100)
    core.set_global_option("MAX_ATTEMPTS", 10)
    core.set_global_option("GUESS", "READ")
    X = HTCCSD(mol)
--> X.HTCCSD([4,5,6,7,8,9], CC_CONV=8)
    print('CAS energy:   {:<5.10f}'.format(X.Ecas))
    print('CCSD Energy: {:<5.10f}'.format(energy('ccsd')))

    Psi4 stopped on: Thursday, 07 November 2019 02:03PM
    Psi4 wall time for execution: 0:00:15.21

*** Psi4 encountered an error. Buy a developer more coffee!
*** Resources and help at github.com/psi4/psi4.
