
    -----------------------------------------------------------------------
          Psi4: An Open-Source Ab Initio Electronic Structure Package
                               Psi4 1.3.2 release

                         Git: Rev {HEAD} ecbda83 


    R. M. Parrish, L. A. Burns, D. G. A. Smith, A. C. Simmonett,
    A. E. DePrince III, E. G. Hohenstein, U. Bozkaya, A. Yu. Sokolov,
    R. Di Remigio, R. M. Richard, J. F. Gonthier, A. M. James,
    H. R. McAlexander, A. Kumar, M. Saitow, X. Wang, B. P. Pritchard,
    P. Verma, H. F. Schaefer III, K. Patkowski, R. A. King, E. F. Valeev,
    F. A. Evangelista, J. M. Turney, T. D. Crawford, and C. D. Sherrill,
    J. Chem. Theory Comput. 13(7) pp 3185--3197 (2017).
    (doi: 10.1021/acs.jctc.7b00174)


                         Additional Contributions by
    P. Kraus, H. Kruse, M. H. Lechner, M. C. Schieber, R. A. Shaw,
    A. Alenaizan, R. Galvelis, Z. L. Glick, S. Lehtola, and J. P. Misiewicz

    -----------------------------------------------------------------------


    Psi4 started on: Monday, 28 October 2019 03:17PM

    Process ID: 72235
    Host:       Mac-mini-3.local
    PSIDATADIR: /Users/aroeira/psi4conda/share/psi4
    Memory:     500.0 MiB
    Threads:    1
    
  ==> Input File <==

--------------------------------------------------------------------------
import os
import sys
import numpy as np
from HTCCSD import HTCCSD

molecule mol {
    unit bohr
    0 1
    N 
    N 1 2.074
    symmetry c1
}

set {
    BASIS         sto-3g
    REFERENCE     RHF
    SCF_TYPE      PK
    SOSCF         True
    E_CONVERGENCE 8
    MAXITER       100
    MAX_ATTEMPTS  10
    GUESS         READ
}

X = HTCCSD(mol)

X.HTCCSD([2,3,4,5,6,7,8,9,10], CC_CONV=8)

print('CAS energy:   {:<5.10f}'.format(X.Ecas))
print('CCSD Energy: {:<5.10f}'.format(energy('ccsd')))
--------------------------------------------------------------------------

*** tstart() called on Mac-mini-3.local
*** at Mon Oct 28 15:17:00 2019

   => Loading Basis Set <=

    Name: STO-3G
    Role: ORBITAL
    Keyword: BASIS
    atoms 1-2 entry N          line    71 file /Users/aroeira/psi4conda/share/psi4/basis/sto-3g.gbs 


         ---------------------------------------------------------
                                   SCF
               by Justin Turney, Rob Parrish, Andy Simmonett
                          and Daniel G. A. Smith
                              RHF Reference
                        1 Threads,    500 MiB Core
         ---------------------------------------------------------

  ==> Geometry <==

    Molecular point group: c1
    Full point group: D_inf_h

    Geometry (in Bohr), charge = 0, multiplicity = 1:

       Center              X                  Y                   Z               Mass       
    ------------   -----------------  -----------------  -----------------  -----------------
         N            0.000000000000     0.000000000000    -1.037000000000    14.003074004430
         N            0.000000000000     0.000000000000     1.037000000000    14.003074004430

  Running in c1 symmetry.

  Rotational constants: A = ************  B =      1.99886  C =      1.99886 [cm^-1]
  Rotational constants: A = ************  B =  59924.44789  C =  59924.44789 [MHz]
  Nuclear repulsion =   23.625843780135007

  Charge       = 0
  Multiplicity = 1
  Electrons    = 14
  Nalpha       = 7
  Nbeta        = 7

  ==> Algorithm <==

  SCF Algorithm Type is PK.
  DIIS enabled.
  MOM disabled.
  Fractional occupation disabled.
  Guess Type is READ.
  Energy threshold   = 1.00e-08
  Density threshold  = 1.00e-06
  Integral threshold = 0.00e+00

  ==> Primary Basis <==

  Basis Set: STO-3G
    Blend: STO-3G
    Number of shells: 6
    Number of basis function: 10
    Number of Cartesian functions: 10
    Spherical Harmonics?: true
    Max angular momentum: 1

  Unable to find file 180, defaulting to SAD guess.
  ==> Pre-Iterations <==

   -------------------------------------------------------
    Irrep   Nso     Nmo     Nalpha   Nbeta   Ndocc  Nsocc
   -------------------------------------------------------
     A         10      10       0       0       0       0
   -------------------------------------------------------
    Total      10      10       7       7       7       0
   -------------------------------------------------------

  ==> Integral Setup <==

  Using in-core PK algorithm.
   Calculation information:
      Number of atoms:                   2
      Number of AO shells:               6
      Number of primitives:             18
      Number of atomic orbitals:        10
      Number of basis functions:        10

      Integral cutoff                 1.00e-12
      Number of threads:                 1

  Performing in-core PK
  Using 3080 doubles for integral storage.
  We computed 231 shell quartets total.
  Whereas there are 231 unique shell quartets.

  ==> DiskJK: Disk-Based J/K Matrices <==

    J tasked:                  Yes
    K tasked:                  Yes
    wK tasked:                  No
    Memory [MiB]:              375
    Schwarz Cutoff:          1E-12

    OpenMP threads:              1

  Minimum eigenvalue in the overlap matrix is 1.6222344723E-01.
  Using Symmetric Orthogonalization.

  SCF Guess: Superposition of Atomic Densities via on-the-fly atomic UHF.

  ==> Iterations <==

                        Total Energy        Delta E     RMS |[F,P]|

   @RHF iter SAD:  -106.43205780498184   -1.06432e+02   0.00000e+00 
   @RHF iter   1:  -107.49291880815997   -1.06086e+00   7.03036e-03 DIIS
   @RHF iter   2:  -107.49569540656978   -2.77660e-03   1.44861e-03 DIIS
   @RHF iter   3:  -107.49584147666690   -1.46070e-04   1.06606e-04 SOSCF, nmicro=3
   @RHF iter   4:  -107.49584212991373   -6.53247e-07   6.27831e-09 SOSCF, nmicro=3
   @RHF iter   5:  -107.49584212991368    4.26326e-14   1.48950e-14 SOSCF, nmicro=conv
  Energy and wave function converged.


  ==> Post-Iterations <==

    Orbital Energies [Eh]
    ---------------------

    Doubly Occupied:                                                      

       1A    -15.518062     2A    -15.516119     3A     -1.442827  
       4A     -0.722493     5A     -0.573114     6A     -0.573114  
       7A     -0.539491  

    Virtual:                                                              

       8A      0.281313     9A      0.281313    10A      1.123444  

    Final Occupation by Irrep:
              A 
    DOCC [     7 ]

  @RHF Final Energy:  -107.49584212991368

   => Energetics <=

    Nuclear Repulsion Energy =             23.6258437801350070
    One-Electron Energy =                -192.4729310475386796
    Two-Electron Energy =                  61.3512451374899896
    Total Energy =                       -107.4958421299136830

Computation Completed


Properties will be evaluated at   0.000000,   0.000000,   0.000000 [a0]

Properties computed using the SCF density matrix

  Nuclear Dipole Moment: [e a0]
     X:     0.0000      Y:     0.0000      Z:     0.0000

  Electronic Dipole Moment: [e a0]
     X:    -0.0000      Y:     0.0000      Z:    -0.0000

  Dipole Moment: [e a0]
     X:    -0.0000      Y:     0.0000      Z:    -0.0000     Total:     0.0000

  Dipole Moment: [D]
     X:    -0.0000      Y:     0.0000      Z:    -0.0000     Total:     0.0000


*** tstop() called on Mac-mini-3.local at Mon Oct 28 15:17:00 2019
Module time:
	user time   =       0.22 seconds =       0.00 minutes
	system time =       0.01 seconds =       0.00 minutes
	total time  =          0 seconds =       0.00 minutes
Total time:
	user time   =       0.22 seconds =       0.00 minutes
	system time =       0.01 seconds =       0.00 minutes
	total time  =          0 seconds =       0.00 minutes

*** tstart() called on Mac-mini-3.local
*** at Mon Oct 28 15:18:19 2019

   => Loading Basis Set <=

    Name: STO-3G
    Role: ORBITAL
    Keyword: BASIS
    atoms 1-2 entry N          line    71 file /Users/aroeira/psi4conda/share/psi4/basis/sto-3g.gbs 


         ---------------------------------------------------------
                                   SCF
               by Justin Turney, Rob Parrish, Andy Simmonett
                          and Daniel G. A. Smith
                              RHF Reference
                        1 Threads,    500 MiB Core
         ---------------------------------------------------------

  ==> Geometry <==

    Molecular point group: c1
    Full point group: D_inf_h

    Geometry (in Bohr), charge = 0, multiplicity = 1:

       Center              X                  Y                   Z               Mass       
    ------------   -----------------  -----------------  -----------------  -----------------
         N            0.000000000000     0.000000000000    -1.037000000000    14.003074004430
         N            0.000000000000     0.000000000000     1.037000000000    14.003074004430

  Running in c1 symmetry.

  Rotational constants: A = ************  B =      1.99886  C =      1.99886 [cm^-1]
  Rotational constants: A = ************  B =  59924.44789  C =  59924.44789 [MHz]
  Nuclear repulsion =   23.625843780135007

  Charge       = 0
  Multiplicity = 1
  Electrons    = 14
  Nalpha       = 7
  Nbeta        = 7

  ==> Algorithm <==

  SCF Algorithm Type is PK.
  DIIS enabled.
  MOM disabled.
  Fractional occupation disabled.
  Guess Type is READ.
  Energy threshold   = 1.00e-08
  Density threshold  = 1.00e-08
  Integral threshold = 0.00e+00

  ==> Primary Basis <==

  Basis Set: STO-3G
    Blend: STO-3G
    Number of shells: 6
    Number of basis function: 10
    Number of Cartesian functions: 10
    Spherical Harmonics?: true
    Max angular momentum: 1

   => Loading Basis Set <=

    Name: STO-3G
    Role: ORBITAL
    Keyword: BASIS
    atoms 1-2 entry N          line    71 file /Users/aroeira/psi4conda/share/psi4/basis/sto-3g.gbs 

  Reading orbitals from file 180, no projection.

  ==> Pre-Iterations <==

   -------------------------------------------------------
    Irrep   Nso     Nmo     Nalpha   Nbeta   Ndocc  Nsocc
   -------------------------------------------------------
     A         10      10       0       0       0       0
   -------------------------------------------------------
    Total      10      10       7       7       7       0
   -------------------------------------------------------

  ==> Integral Setup <==

  Using in-core PK algorithm.
   Calculation information:
      Number of atoms:                   2
      Number of AO shells:               6
      Number of primitives:             18
      Number of atomic orbitals:        10
      Number of basis functions:        10

      Integral cutoff                 1.00e-12
      Number of threads:                 1

  Performing in-core PK
  Using 3080 doubles for integral storage.
  We computed 231 shell quartets total.
  Whereas there are 231 unique shell quartets.

  ==> DiskJK: Disk-Based J/K Matrices <==

    J tasked:                  Yes
    K tasked:                  Yes
    wK tasked:                  No
    Memory [MiB]:              375
    Schwarz Cutoff:          1E-12

    OpenMP threads:              1

  Minimum eigenvalue in the overlap matrix is 1.6222344723E-01.
  Using Symmetric Orthogonalization.

  SCF Guess: Orbitals guess was supplied from a previous computation.

  ==> Iterations <==

                        Total Energy        Delta E     RMS |[F,P]|

   @RHF iter   0:  -107.49584212991361   -1.07496e+02   1.37105e-14 
   @RHF iter   1:  -107.49584212991371   -9.94760e-14   1.19813e-14 DIIS
  Energy and wave function converged.


  ==> Post-Iterations <==

    Orbital Energies [Eh]
    ---------------------

    Doubly Occupied:                                                      

       1A    -15.518062     2A    -15.516119     3A     -1.442827  
       4A     -0.722493     5A     -0.573114     6A     -0.573114  
       7A     -0.539491  

    Virtual:                                                              

       8A      0.281313     9A      0.281313    10A      1.123444  

    Final Occupation by Irrep:
              A 
    DOCC [     7 ]

  @RHF Final Energy:  -107.49584212991371

   => Energetics <=

    Nuclear Repulsion Energy =             23.6258437801350070
    One-Electron Energy =                -192.4729310475386796
    Two-Electron Energy =                  61.3512451374899683
    Total Energy =                       -107.4958421299137115

Computation Completed


Properties will be evaluated at   0.000000,   0.000000,   0.000000 [a0]

Properties computed using the SCF density matrix

  Nuclear Dipole Moment: [e a0]
     X:     0.0000      Y:     0.0000      Z:     0.0000

  Electronic Dipole Moment: [e a0]
     X:    -0.0000      Y:     0.0000      Z:    -0.0000

  Dipole Moment: [e a0]
     X:    -0.0000      Y:     0.0000      Z:    -0.0000     Total:     0.0000

  Dipole Moment: [D]
     X:    -0.0000      Y:     0.0000      Z:    -0.0000     Total:     0.0000


*** tstop() called on Mac-mini-3.local at Mon Oct 28 15:18:19 2019
Module time:
	user time   =       0.11 seconds =       0.00 minutes
	system time =       0.02 seconds =       0.00 minutes
	total time  =          0 seconds =       0.00 minutes
Total time:
	user time   =      73.45 seconds =       1.22 minutes
	system time =       0.90 seconds =       0.02 minutes
	total time  =         79 seconds =       1.32 minutes
 MINTS: Wrapper to libmints.
   by Justin Turney

   Calculation information:
      Number of threads:                 1
      Number of atoms:                   2
      Number of AO shells:               6
      Number of SO shells:               6
      Number of primitives:             18
      Number of atomic orbitals:        10
      Number of basis functions:        10

      Number of irreps:                  1
      Integral cutoff                 0.00e+00
      Number of functions per irrep: [  10 ]

 OEINTS: Overlap, kinetic, potential, dipole, and quadrupole integrals
         stored in file 35.

      Computing two-electron integrals...done
      Computed 512 non-zero two-electron integrals.
        Stored in file 33.


*** tstart() called on Mac-mini-3.local
*** at Mon Oct 28 15:18:20 2019


	Wfn Parameters:
	--------------------
	Wavefunction         = CCSD
	Number of irreps     = 1
	Number of MOs        = 10
	Number of active MOs = 10
	AO-Basis             = NONE
	Semicanonical        = false
	Reference            = RHF
	Print Level          = 1

	IRREP	# MOs	# FZDC	# DOCC	# SOCC	# VIRT	# FZVR
	-----	-----	------	------	------	------	------
	 A	   10	    0	    7	    0	    3	    0
	Transforming integrals...
	IWL integrals will be deleted.
	(OO|OO)...
	Presorting SO-basis two-electron integrals.
	Sorting File: SO Ints (nn|nn) nbuckets = 1
	Transforming the one-electron integrals and constructing Fock matrices
	Starting first half-transformation.
	Sorting half-transformed integrals.
	First half integral transformation complete.
	Starting second half-transformation.
	Two-electron integral transformation complete.
	(OO|OV)...
	Starting second half-transformation.
	Two-electron integral transformation complete.
	(OO|VV)...
	Starting second half-transformation.
	Two-electron integral transformation complete.
	(OV|OO)...
	Starting first half-transformation.
	Sorting half-transformed integrals.
	First half integral transformation complete.
	Starting second half-transformation.
	Two-electron integral transformation complete.
	(OV|OV)...
	Starting second half-transformation.
	Two-electron integral transformation complete.
	(OV|VV)...
	Starting second half-transformation.
	Two-electron integral transformation complete.
	(VV|OO)...
	Starting first half-transformation.
	Sorting half-transformed integrals.
	First half integral transformation complete.
	Starting second half-transformation.
	Two-electron integral transformation complete.
	(VV|OV)...
	Starting second half-transformation.
	Two-electron integral transformation complete.
	(VV|VV)...
	Starting second half-transformation.
	Two-electron integral transformation complete.
	Frozen core energy     =      0.00000000000000

	Size of irrep 0 of <ab|cd> integrals:      0.000 (MW) /      0.001 (MB)
	Total:                                     0.000 (MW) /      0.001 (MB)

	Size of irrep 0 of <ia|bc> integrals:      0.000 (MW) /      0.002 (MB)
	Total:                                     0.000 (MW) /      0.002 (MB)

	Size of irrep 0 of tijab amplitudes:       0.000 (MW) /      0.004 (MB)
	Total:                                     0.000 (MW) /      0.004 (MB)

	Nuclear Rep. energy          =     23.62584378013501
	SCF energy                   =   -107.49584212991371
	One-electron energy          =   -192.47293104753859
	Two-electron energy          =     61.35124513748995
	Reference energy             =   -107.49584212991365

*** tstop() called on Mac-mini-3.local at Mon Oct 28 15:18:20 2019
Module time:
	user time   =       0.02 seconds =       0.00 minutes
	system time =       0.07 seconds =       0.00 minutes
	total time  =          0 seconds =       0.00 minutes
Total time:
	user time   =      73.48 seconds =       1.22 minutes
	system time =       0.97 seconds =       0.02 minutes
	total time  =         80 seconds =       1.33 minutes
            **************************
            *                        *
            *        CCENERGY        *
            *                        *
            **************************

    Nuclear Rep. energy (wfn)     =   23.625843780135007
    SCF energy          (wfn)     = -107.495842129913711
    Reference energy    (file100) = -107.495842129913655

    Input parameters:
    -----------------
    Wave function   =     CCSD
    Reference wfn   =     RHF
    Brueckner       =     No
    Memory (Mbytes) =     524.3
    Maxiter         =    100
    R_Convergence   =     1.0e-07
    E_Convergence   =     1.0e-08
    Restart         =     Yes
    DIIS            =     Yes
    AO Basis        =     NONE
    ABCD            =     NEW
    Cache Level     =     2
    Cache Type      =     LOW
    Print Level     =     1
    Num. of threads =     1
    # Amps to Print =     10
    Print MP2 Amps? =     No
    Analyze T2 Amps =     No
    Print Pair Ener =     No
    Local CC        =     No
    SCS-MP2         =     False
    SCSN-MP2        =     False
    SCS-CCSD        =     False

MP2 correlation energy -0.1540233688686143
                Solving CC Amplitude Equations
                ------------------------------
  Iter             Energy              RMS        T1Diag      D1Diag    New D1Diag    D2Diag
  ----     ---------------------    ---------   ----------  ----------  ----------   --------
     0        -0.154023368868614    0.000e+00    0.000000    0.000000    0.000000    0.157618
     1        -0.147458058356813    2.920e-02    0.002489    0.009315    0.009315    0.162458
     2        -0.151202882466835    1.591e-02    0.002662    0.009961    0.009961    0.172228
     3        -0.152658579596904    7.503e-03    0.002775    0.010384    0.010384    0.179460
     4        -0.153009348590143    1.659e-03    0.002714    0.010155    0.010155    0.181038
     5        -0.152986568409627    2.055e-04    0.002710    0.010140    0.010140    0.181009
     6        -0.152996355088184    3.772e-05    0.002709    0.010136    0.010136    0.181036
     7        -0.152995104275748    7.284e-06    0.002709    0.010135    0.010135    0.181033
     8        -0.152995401367122    2.176e-06    0.002709    0.010135    0.010135    0.181034
     9        -0.152995394956349    3.194e-07    0.002709    0.010135    0.010135    0.181034
    10        -0.152995386408006    6.042e-08    0.002709    0.010135    0.010135    0.181034

    Iterations converged.


    Largest TIA Amplitudes:
              3   2         0.0101347240
              1   2        -0.0000692914

    Largest TIjAb Amplitudes:
      4   4   0   0        -0.1356406286
      5   5   1   1        -0.1356406286
      4   5   0   1        -0.0839483227
      5   4   1   0        -0.0839483227
      3   3   0   0        -0.0522293569
      3   3   1   1        -0.0522293569
      4   5   1   0        -0.0356283504
      5   4   0   1        -0.0356283504
      4   6   0   2         0.0305886344
      5   6   1   2         0.0305886344

    SCF energy       (wfn)                    = -107.495842129913711
    Reference energy (file100)                = -107.495842129913655

    Opposite-spin MP2 correlation energy      =   -0.113821529631539
    Same-spin MP2 correlation energy          =   -0.040201839237075
    MP2 correlation energy                    =   -0.154023368868614
      * MP2 total energy                      = -107.649865498782262

    Opposite-spin CCSD correlation energy     =   -0.124973311494572
    Same-spin CCSD correlation energy         =   -0.028022074913434
    CCSD correlation energy                   =   -0.152995386408006
      * CCSD total energy                     = -107.648837516321663


    Psi4 stopped on: Monday, 28 October 2019 03:18PM
    Psi4 wall time for execution: 0:01:20.54

*** Psi4 exiting successfully. Buy a developer a beer!
