
    -----------------------------------------------------------------------
          Psi4: An Open-Source Ab Initio Electronic Structure Package
                               Psi4 1.3.2 release

                         Git: Rev {HEAD} ecbda83 


    R. M. Parrish, L. A. Burns, D. G. A. Smith, A. C. Simmonett,
    A. E. DePrince III, E. G. Hohenstein, U. Bozkaya, A. Yu. Sokolov,
    R. Di Remigio, R. M. Richard, J. F. Gonthier, A. M. James,
    H. R. McAlexander, A. Kumar, M. Saitow, X. Wang, B. P. Pritchard,
    P. Verma, H. F. Schaefer III, K. Patkowski, R. A. King, E. F. Valeev,
    F. A. Evangelista, J. M. Turney, T. D. Crawford, and C. D. Sherrill,
    J. Chem. Theory Comput. 13(7) pp 3185--3197 (2017).
    (doi: 10.1021/acs.jctc.7b00174)


                         Additional Contributions by
    P. Kraus, H. Kruse, M. H. Lechner, M. C. Schieber, R. A. Shaw,
    A. Alenaizan, R. Galvelis, Z. L. Glick, S. Lehtola, and J. P. Misiewicz

    -----------------------------------------------------------------------


    Psi4 started on: Tuesday, 12 November 2019 09:14PM

    Process ID: 21372
    Host:       Mac-mini-3.local
    PSIDATADIR: /Users/aroeira/psi4conda/share/psi4
    Memory:     500.0 MiB
    Threads:    1
    
  ==> Input File <==

--------------------------------------------------------------------------
import os
import sys
import numpy as np
from HTCCSD import HTCCSD

molecule mol {
    unit bohr
    0 1
    N 
    N 1 2.074
    symmetry c1
}

set {
    BASIS         cc-pvdz
    REFERENCE     RHF
    SCF_TYPE      PK
    SOSCF         True
    E_CONVERGENCE 8
    MAXITER       100
    MAX_ATTEMPTS  10
    GUESS         READ
}

#X = HTCCSD(mol)

#X.HTCCSD([4,5,6,7,8,9], CC_CONV=8)

#print('CAS energy:   {:<5.10f}'.format(X.Ecas))
#print('CCSD Energy: {:<5.10f}'.format(energy('ccsd')))
print('CCSD(T) Energy: {:<5.10f}'.format(energy('ccsd(t)')))
--------------------------------------------------------------------------

*** tstart() called on Mac-mini-3.local
*** at Tue Nov 12 21:14:49 2019

   => Loading Basis Set <=

    Name: CC-PVDZ
    Role: ORBITAL
    Keyword: BASIS
    atoms 1-2 entry N          line   168 file /Users/aroeira/psi4conda/share/psi4/basis/cc-pvdz.gbs 


         ---------------------------------------------------------
                                   SCF
               by Justin Turney, Rob Parrish, Andy Simmonett
                          and Daniel G. A. Smith
                              RHF Reference
                        1 Threads,    500 MiB Core
         ---------------------------------------------------------

  ==> Geometry <==

    Molecular point group: c1
    Full point group: D_inf_h

    Geometry (in Bohr), charge = 0, multiplicity = 1:

       Center              X                  Y                   Z               Mass       
    ------------   -----------------  -----------------  -----------------  -----------------
         N            0.000000000000     0.000000000000    -1.037000000000    14.003074004430
         N            0.000000000000     0.000000000000     1.037000000000    14.003074004430

  Running in c1 symmetry.

  Rotational constants: A = ************  B =      1.99886  C =      1.99886 [cm^-1]
  Rotational constants: A = ************  B =  59924.44789  C =  59924.44789 [MHz]
  Nuclear repulsion =   23.625843780135007

  Charge       = 0
  Multiplicity = 1
  Electrons    = 14
  Nalpha       = 7
  Nbeta        = 7

  ==> Algorithm <==

  SCF Algorithm Type is PK.
  DIIS enabled.
  MOM disabled.
  Fractional occupation disabled.
  Guess Type is READ.
  Energy threshold   = 1.00e-08
  Density threshold  = 1.00e-08
  Integral threshold = 0.00e+00

  ==> Primary Basis <==

  Basis Set: CC-PVDZ
    Blend: CC-PVDZ
    Number of shells: 12
    Number of basis function: 28
    Number of Cartesian functions: 30
    Spherical Harmonics?: true
    Max angular momentum: 2

  Unable to find file 180, defaulting to SAD guess.
  ==> Pre-Iterations <==

   -------------------------------------------------------
    Irrep   Nso     Nmo     Nalpha   Nbeta   Ndocc  Nsocc
   -------------------------------------------------------
     A         28      28       0       0       0       0
   -------------------------------------------------------
    Total      28      28       7       7       7       0
   -------------------------------------------------------

  ==> Integral Setup <==

  Using in-core PK algorithm.
   Calculation information:
      Number of atoms:                   2
      Number of AO shells:              12
      Number of primitives:             44
      Number of atomic orbitals:        30
      Number of basis functions:        28

      Integral cutoff                 1.00e-12
      Number of threads:                 1

  Performing in-core PK
  Using 165242 doubles for integral storage.
  We computed 3081 shell quartets total.
  Whereas there are 3081 unique shell quartets.

  ==> DiskJK: Disk-Based J/K Matrices <==

    J tasked:                  Yes
    K tasked:                  Yes
    wK tasked:                  No
    Memory [MiB]:              375
    Schwarz Cutoff:          1E-12

    OpenMP threads:              1

  Minimum eigenvalue in the overlap matrix is 6.1316072355E-03.
  Using Symmetric Orthogonalization.

  SCF Guess: Superposition of Atomic Densities via on-the-fly atomic UHF.

  ==> Iterations <==

                        Total Energy        Delta E     RMS |[F,P]|

   @RHF iter SAD:  -108.08000487095929   -1.08080e+02   0.00000e+00 
   @RHF iter   1:  -108.94874024975297   -8.68735e-01   3.66358e-03 DIIS
   @RHF iter   2:  -108.95391274418944   -5.17249e-03   6.61155e-04 DIIS
   @RHF iter   3:  -108.95413606613012   -2.23322e-04   1.69209e-04 SOSCF, nmicro=4
   @RHF iter   4:  -108.95415346685925   -1.74007e-05   3.38103e-07 SOSCF, nmicro=5
   @RHF iter   5:  -108.95415346689623   -3.69766e-11   2.02536e-10 SOSCF, nmicro=conv
  Energy and wave function converged.


  ==> Post-Iterations <==

    Orbital Energies [Eh]
    ---------------------

    Doubly Occupied:                                                      

       1A    -15.686380     2A    -15.682974     3A     -1.471331  
       4A     -0.774043     5A     -0.626242     6A     -0.608230  
       7A     -0.608230  

    Virtual:                                                              

       8A      0.175747     9A      0.175747    10A      0.594688  
      11A      0.820022    12A      0.872167    13A      0.872167  
      14A      0.992264    15A      1.051081    16A      1.051081  
      17A      1.144666    18A      1.643402    19A      1.757337  
      20A      1.757337    21A      1.882225    22A      1.882225  
      23A      2.299102    24A      2.299102    25A      2.874682  
      26A      2.996665    27A      2.996665    28A      3.284216  

    Final Occupation by Irrep:
              A 
    DOCC [     7 ]

  @RHF Final Energy:  -108.95415346689623

   => Energetics <=

    Nuclear Repulsion Energy =             23.6258437801350070
    One-Electron Energy =                -194.2451325030553448
    Two-Electron Energy =                  61.6651352560241151
    Total Energy =                       -108.9541534668962299

Computation Completed


Properties will be evaluated at   0.000000,   0.000000,   0.000000 [a0]

Properties computed using the SCF density matrix

  Nuclear Dipole Moment: [e a0]
     X:     0.0000      Y:     0.0000      Z:     0.0000

  Electronic Dipole Moment: [e a0]
     X:    -0.0000      Y:    -0.0000      Z:    -0.0000

  Dipole Moment: [e a0]
     X:    -0.0000      Y:    -0.0000      Z:    -0.0000     Total:     0.0000

  Dipole Moment: [D]
     X:    -0.0000      Y:    -0.0000      Z:    -0.0000     Total:     0.0000


*** tstop() called on Mac-mini-3.local at Tue Nov 12 21:14:50 2019
Module time:
	user time   =       0.30 seconds =       0.01 minutes
	system time =       0.02 seconds =       0.00 minutes
	total time  =          1 seconds =       0.02 minutes
Total time:
	user time   =       0.30 seconds =       0.01 minutes
	system time =       0.02 seconds =       0.00 minutes
	total time  =          1 seconds =       0.02 minutes
 MINTS: Wrapper to libmints.
   by Justin Turney

   Calculation information:
      Number of threads:                 1
      Number of atoms:                   2
      Number of AO shells:              12
      Number of SO shells:              12
      Number of primitives:             44
      Number of atomic orbitals:        30
      Number of basis functions:        28

      Number of irreps:                  1
      Integral cutoff                 0.00e+00
      Number of functions per irrep: [  28 ]

 OEINTS: Overlap, kinetic, potential, dipole, and quadrupole integrals
         stored in file 35.

      Computing two-electron integrals...done
      Computed 19381 non-zero two-electron integrals.
        Stored in file 33.


*** tstart() called on Mac-mini-3.local
*** at Tue Nov 12 21:14:50 2019


	Wfn Parameters:
	--------------------
	Wavefunction         = CCSD_T
	Number of irreps     = 1
	Number of MOs        = 28
	Number of active MOs = 28
	AO-Basis             = NONE
	Semicanonical        = false
	Reference            = RHF
	Print Level          = 1

	IRREP	# MOs	# FZDC	# DOCC	# SOCC	# VIRT	# FZVR
	-----	-----	------	------	------	------	------
	 A	   28	    0	    7	    0	    21	    0
	Transforming integrals...
	IWL integrals will be deleted.
	(OO|OO)...
	Presorting SO-basis two-electron integrals.
	Sorting File: SO Ints (nn|nn) nbuckets = 1
	Transforming the one-electron integrals and constructing Fock matrices
	Starting first half-transformation.
	Sorting half-transformed integrals.
	First half integral transformation complete.
	Starting second half-transformation.
	Two-electron integral transformation complete.
	(OO|OV)...
	Starting second half-transformation.
	Two-electron integral transformation complete.
	(OO|VV)...
	Starting second half-transformation.
	Two-electron integral transformation complete.
	(OV|OO)...
	Starting first half-transformation.
	Sorting half-transformed integrals.
	First half integral transformation complete.
	Starting second half-transformation.
	Two-electron integral transformation complete.
	(OV|OV)...
	Starting second half-transformation.
	Two-electron integral transformation complete.
	(OV|VV)...
	Starting second half-transformation.
	Two-electron integral transformation complete.
	(VV|OO)...
	Starting first half-transformation.
	Sorting half-transformed integrals.
	First half integral transformation complete.
	Starting second half-transformation.
	Two-electron integral transformation complete.
	(VV|OV)...
	Starting second half-transformation.
	Two-electron integral transformation complete.
	(VV|VV)...
	Starting second half-transformation.
	Two-electron integral transformation complete.
	Frozen core energy     =      0.00000000000000

	Size of irrep 0 of <ab|cd> integrals:      0.194 (MW) /      1.556 (MB)
	Total:                                     0.194 (MW) /      1.556 (MB)

	Size of irrep 0 of <ia|bc> integrals:      0.065 (MW) /      0.519 (MB)
	Total:                                     0.065 (MW) /      0.519 (MB)

	Size of irrep 0 of tijab amplitudes:       0.022 (MW) /      0.173 (MB)
	Total:                                     0.022 (MW) /      0.173 (MB)

	Nuclear Rep. energy          =     23.62584378013501
	SCF energy                   =   -108.95415346689623
	One-electron energy          =   -194.24513250379775
	Two-electron energy          =     61.66513525676640
	Reference energy             =   -108.95415346689634

*** tstop() called on Mac-mini-3.local at Tue Nov 12 21:14:50 2019
Module time:
	user time   =       0.03 seconds =       0.00 minutes
	system time =       0.08 seconds =       0.00 minutes
	total time  =          0 seconds =       0.00 minutes
Total time:
	user time   =       0.38 seconds =       0.01 minutes
	system time =       0.11 seconds =       0.00 minutes
	total time  =          1 seconds =       0.02 minutes
            **************************
            *                        *
            *        CCENERGY        *
            *                        *
            **************************

    Nuclear Rep. energy (wfn)     =   23.625843780135007
    SCF energy          (wfn)     = -108.954153466896230
    Reference energy    (file100) = -108.954153466896344

    Input parameters:
    -----------------
    Wave function   =     CCSD_T
    Reference wfn   =     RHF
    Brueckner       =     No
    Memory (Mbytes) =     524.3
    Maxiter         =    100
    R_Convergence   =     1.0e-07
    E_Convergence   =     1.0e-08
    Restart         =     Yes
    DIIS            =     Yes
    AO Basis        =     NONE
    ABCD            =     NEW
    Cache Level     =     2
    Cache Type      =     LOW
    Print Level     =     1
    Num. of threads =     1
    # Amps to Print =     10
    Print MP2 Amps? =     No
    Analyze T2 Amps =     No
    Print Pair Ener =     No
    Local CC        =     No
    SCS-MP2         =     False
    SCSN-MP2        =     False
    SCS-CCSD        =     False

MP2 correlation energy -0.3105414800480866
                Solving CC Amplitude Equations
                ------------------------------
  Iter             Energy              RMS        T1Diag      D1Diag    New D1Diag    D2Diag
  ----     ---------------------    ---------   ----------  ----------  ----------   --------
     0        -0.310541480048087    0.000e+00    0.000000    0.000000    0.000000    0.157982
     1        -0.299540171382591    5.416e-02    0.009033    0.022570    0.022570    0.152338
     2        -0.310204739977876    2.157e-02    0.008889    0.022016    0.022016    0.162528
     3        -0.312648300675936    8.240e-03    0.009886    0.024387    0.024387    0.168660
     4        -0.313018972881687    2.323e-03    0.009904    0.024447    0.024447    0.170517
     5        -0.313039318660248    3.556e-04    0.009895    0.024435    0.024435    0.170690
     6        -0.313039945876501    7.440e-05    0.009890    0.024428    0.024428    0.170690
     7        -0.313041324723240    1.504e-05    0.009890    0.024428    0.024428    0.170694
     8        -0.313040764220478    2.434e-06    0.009890    0.024428    0.024428    0.170694
     9        -0.313040789337782    5.114e-07    0.009890    0.024428    0.024428    0.170694
    10        -0.313040809757545    1.424e-07    0.009890    0.024428    0.024428    0.170694
    11        -0.313040803556455    4.304e-08    0.009890    0.024428    0.024428    0.170694
    12        -0.313040805340628    1.218e-08    0.009890    0.024428    0.024428    0.170694

    Iterations converged.


    Largest TIA Amplitudes:
              5   4        -0.0204003923
              6   5         0.0204003923
              5  13         0.0133333044
              6  14         0.0133333044
              3   9        -0.0096920386
              3   2        -0.0044879370
              4   6         0.0042992961
              3  10         0.0042511317
              2  17        -0.0038552748
              4  17         0.0025459412

    Largest TIjAb Amplitudes:
      5   5   1   1        -0.0982174613
      6   6   0   0        -0.0982174613
      5   6   1   0         0.0590595113
      6   5   0   1         0.0590595113
      3   3   0   0        -0.0464341099
      3   3   1   1        -0.0464341099
      4   4   9   9        -0.0348534582
      5   5   1   8         0.0308933135
      5   5   8   1         0.0308933135
      6   6   0   7        -0.0308933135

    SCF energy       (wfn)                    = -108.954153466896230
    Reference energy (file100)                = -108.954153466896344

    Opposite-spin MP2 correlation energy      =   -0.227450511515396
    Same-spin MP2 correlation energy          =   -0.083090968532691
    MP2 correlation energy                    =   -0.310541480048087
      * MP2 total energy                      = -109.264694946944431

    Opposite-spin CCSD correlation energy     =   -0.245147578287889
    Same-spin CCSD correlation energy         =   -0.067893227052738
    CCSD correlation energy                   =   -0.313040805340628
      * CCSD total energy                     = -109.267194272236978

            **************************
            *                        *
            *        CCTRIPLES       *
            *                        *
            **************************


    Wave function   =    CCSD_T
    Reference wfn   =      RHF

    Nuclear Rep. energy (wfn)                =   23.625843780135007
    SCF energy          (wfn)                = -108.954153466896230
    Reference energy    (file100)            = -108.954153466896344
    CCSD energy         (file100)            =   -0.313040805340628
    Total CCSD energy   (file100)            = -109.267194272236978

    Number of ijk index combinations:               84
    Memory available in words        :        65536000
    ~Words needed per explicit thread:           37044
    Number of threads for explicit ijk threading:    1

    MKL num_threads set to 1 for explicit threading.

    (T) energy                                =   -0.011930551978547
      * CCSD(T) total energy                  = -109.279124824215515


    Psi4 stopped on: Tuesday, 12 November 2019 09:14PM
    Psi4 wall time for execution: 0:00:01.34

*** Psi4 exiting successfully. Buy a developer a beer!
