
    -----------------------------------------------------------------------
          Psi4: An Open-Source Ab Initio Electronic Structure Package
                               Psi4 1.3.2 release

                         Git: Rev {HEAD} ecbda83 


    R. M. Parrish, L. A. Burns, D. G. A. Smith, A. C. Simmonett,
    A. E. DePrince III, E. G. Hohenstein, U. Bozkaya, A. Yu. Sokolov,
    R. Di Remigio, R. M. Richard, J. F. Gonthier, A. M. James,
    H. R. McAlexander, A. Kumar, M. Saitow, X. Wang, B. P. Pritchard,
    P. Verma, H. F. Schaefer III, K. Patkowski, R. A. King, E. F. Valeev,
    F. A. Evangelista, J. M. Turney, T. D. Crawford, and C. D. Sherrill,
    J. Chem. Theory Comput. 13(7) pp 3185--3197 (2017).
    (doi: 10.1021/acs.jctc.7b00174)


                         Additional Contributions by
    P. Kraus, H. Kruse, M. H. Lechner, M. C. Schieber, R. A. Shaw,
    A. Alenaizan, R. Galvelis, Z. L. Glick, S. Lehtola, and J. P. Misiewicz

    -----------------------------------------------------------------------


    Psi4 started on: Thursday, 05 December 2019 02:06AM

    Process ID: 7324
    Host:       BabyShark
    PSIDATADIR: /home/aroeira/psi4conda/share/psi4
    Memory:     500.0 MiB
    Threads:    1
    
  ==> Input File <==

--------------------------------------------------------------------------
import os
import sys
import numpy as np
sys.path.append('./')
from HTCCSD import HTCCSD

molecule mol {
    0 1
    O
    H 1 0.96
    H 1 0.96 2 104.5
    symmetry c1
}

set {
    BASIS         cc-pvdz
    REFERENCE     RHF
    SCF_TYPE      PK
    SOSCF         True
    E_CONVERGENCE 8
    MAXITER       100
    MAX_ATTEMPTS  10
    GUESS         READ
}

X = HTCCSD(mol)

X.HTCCSD([2,3,4,5,6,7], CC_CONV=8)

print('CAS energy:   {:<5.10f}'.format(X.Ecas))
print('CCSD Energy: {:<5.10f}'.format(energy('ccsd')))

s = np.argsort(abs(X.Ccas))[::-1]
data = X.Ccas[s]
dets = np.array(X.determinants)[s]
data = -1*data

count = 1
for i, d in zip(data, dets):
    if abs(i) > 1e-10:
        print('{}   {:< 5.6f}'.format(count,i))
        print(d)
        count += 1
--------------------------------------------------------------------------

*** tstart() called on BabyShark
*** at Thu Dec  5 02:06:30 2019

   => Loading Basis Set <=

    Name: CC-PVDZ
    Role: ORBITAL
    Keyword: BASIS
    atoms 1   entry O          line   198 file /home/aroeira/psi4conda/share/psi4/basis/cc-pvdz.gbs 
    atoms 2-3 entry H          line    22 file /home/aroeira/psi4conda/share/psi4/basis/cc-pvdz.gbs 


         ---------------------------------------------------------
                                   SCF
               by Justin Turney, Rob Parrish, Andy Simmonett
                          and Daniel G. A. Smith
                              RHF Reference
                        1 Threads,    500 MiB Core
         ---------------------------------------------------------

  ==> Geometry <==

    Molecular point group: c1
    Full point group: C2v

    Geometry (in Angstrom), charge = 0, multiplicity = 1:

       Center              X                  Y                   Z               Mass       
    ------------   -----------------  -----------------  -----------------  -----------------
         O            0.000000000000     0.000000000000    -0.065775570547    15.994914619570
         H            0.000000000000    -0.759061990794     0.521953018286     1.007825032230
         H            0.000000000000     0.759061990794     0.521953018286     1.007825032230

  Running in c1 symmetry.

  Rotational constants: A =     27.26297  B =     14.51533  C =      9.47217 [cm^-1]
  Rotational constants: A = 817323.21126  B = 435158.60141  C = 283968.37536 [MHz]
  Nuclear repulsion =    9.168193296424349

  Charge       = 0
  Multiplicity = 1
  Electrons    = 10
  Nalpha       = 5
  Nbeta        = 5

  ==> Algorithm <==

  SCF Algorithm Type is PK.
  DIIS enabled.
  MOM disabled.
  Fractional occupation disabled.
  Guess Type is READ.
  Energy threshold   = 1.00e-08
  Density threshold  = 1.00e-06
  Integral threshold = 0.00e+00

  ==> Primary Basis <==

  Basis Set: CC-PVDZ
    Blend: CC-PVDZ
    Number of shells: 12
    Number of basis function: 24
    Number of Cartesian functions: 25
    Spherical Harmonics?: true
    Max angular momentum: 2

  Unable to find file 180, defaulting to SAD guess.
  ==> Pre-Iterations <==

   -------------------------------------------------------
    Irrep   Nso     Nmo     Nalpha   Nbeta   Ndocc  Nsocc
   -------------------------------------------------------
     A         24      24       0       0       0       0
   -------------------------------------------------------
    Total      24      24       5       5       5       0
   -------------------------------------------------------

  ==> Integral Setup <==

  Using in-core PK algorithm.
   Calculation information:
      Number of atoms:                   3
      Number of AO shells:              12
      Number of primitives:             32
      Number of atomic orbitals:        25
      Number of basis functions:        24

      Integral cutoff                 1.00e-12
      Number of threads:                 1

  Performing in-core PK
  Using 90300 doubles for integral storage.
  We computed 3081 shell quartets total.
  Whereas there are 3081 unique shell quartets.

  ==> DiskJK: Disk-Based J/K Matrices <==

    J tasked:                  Yes
    K tasked:                  Yes
    wK tasked:                  No
    Memory [MiB]:              375
    Schwarz Cutoff:          1E-12

    OpenMP threads:              1

  Minimum eigenvalue in the overlap matrix is 3.4377086613E-02.
  Using Symmetric Orthogonalization.

  SCF Guess: Superposition of Atomic Densities via on-the-fly atomic UHF.

  ==> Iterations <==

                        Total Energy        Delta E     RMS |[F,P]|

   @RHF iter SAD:   -75.50773245934771   -7.55077e+01   0.00000e+00 
   @RHF iter   1:   -75.95378451303725   -4.46052e-01   1.74065e-02 DIIS
   @RHF iter   2:   -76.00708060915019   -5.32961e-02   9.96982e-03 DIIS
   @RHF iter   3:   -76.02624491761580   -1.91643e-02   9.09897e-04 SOSCF, nmicro=5
   @RHF iter   4:   -76.02665365432333   -4.08737e-04   4.46527e-06 SOSCF, nmicro=5
   @RHF iter   5:   -76.02665366188810   -7.56478e-09   3.57710e-08 SOSCF, nmicro=conv
  Energy and wave function converged.


  ==> Post-Iterations <==

    Orbital Energies [Eh]
    ---------------------

    Doubly Occupied:                                                      

       1A    -20.550919     2A     -1.335305     3A     -0.697799  
       4A     -0.566090     5A     -0.492954  

    Virtual:                                                              

       6A      0.185103     7A      0.255849     8A      0.787301  
       9A      0.851798    10A      1.163709    11A      1.200352  
      12A      1.253479    13A      1.444918    14A      1.475588  
      15A      1.674083    16A      1.867861    17A      1.931955  
      18A      2.446380    19A      2.483524    20A      3.283305  
      21A      3.336170    22A      3.506961    23A      3.862825  
      24A      4.144454  

    Final Occupation by Irrep:
              A 
    DOCC [     5 ]

  @RHF Final Energy:   -76.02665366188810

   => Energetics <=

    Nuclear Repulsion Energy =              9.1681932964243487
    One-Electron Energy =                -123.1035621435316614
    Two-Electron Energy =                  37.9087151852192008
    Total Energy =                        -76.0266536618881048

Computation Completed


Properties will be evaluated at   0.000000,   0.000000,   0.000000 [a0]

Properties computed using the SCF density matrix

  Nuclear Dipole Moment: [e a0]
     X:     0.0000      Y:     0.0000      Z:     0.9783

  Electronic Dipole Moment: [e a0]
     X:     0.0000      Y:    -0.0000      Z:    -0.1682

  Dipole Moment: [e a0]
     X:     0.0000      Y:    -0.0000      Z:     0.8101     Total:     0.8101

  Dipole Moment: [D]
     X:     0.0000      Y:    -0.0000      Z:     2.0592     Total:     2.0592


*** tstop() called on BabyShark at Thu Dec  5 02:06:31 2019
Module time:
	user time   =       0.49 seconds =       0.01 minutes
	system time =       0.01 seconds =       0.00 minutes
	total time  =          1 seconds =       0.02 minutes
Total time:
	user time   =       0.49 seconds =       0.01 minutes
	system time =       0.01 seconds =       0.00 minutes
	total time  =          1 seconds =       0.02 minutes

*** tstart() called on BabyShark
*** at Thu Dec  5 02:06:40 2019

   => Loading Basis Set <=

    Name: CC-PVDZ
    Role: ORBITAL
    Keyword: BASIS
    atoms 1   entry O          line   198 file /home/aroeira/psi4conda/share/psi4/basis/cc-pvdz.gbs 
    atoms 2-3 entry H          line    22 file /home/aroeira/psi4conda/share/psi4/basis/cc-pvdz.gbs 


         ---------------------------------------------------------
                                   SCF
               by Justin Turney, Rob Parrish, Andy Simmonett
                          and Daniel G. A. Smith
                              RHF Reference
                        1 Threads,    500 MiB Core
         ---------------------------------------------------------

  ==> Geometry <==

    Molecular point group: c1
    Full point group: C2v

    Geometry (in Angstrom), charge = 0, multiplicity = 1:

       Center              X                  Y                   Z               Mass       
    ------------   -----------------  -----------------  -----------------  -----------------
         O            0.000000000000     0.000000000000    -0.065775570547    15.994914619570
         H            0.000000000000    -0.759061990794     0.521953018286     1.007825032230
         H            0.000000000000     0.759061990794     0.521953018286     1.007825032230

  Running in c1 symmetry.

  Rotational constants: A =     27.26297  B =     14.51533  C =      9.47217 [cm^-1]
  Rotational constants: A = 817323.21126  B = 435158.60141  C = 283968.37536 [MHz]
  Nuclear repulsion =    9.168193296424349

  Charge       = 0
  Multiplicity = 1
  Electrons    = 10
  Nalpha       = 5
  Nbeta        = 5

  ==> Algorithm <==

  SCF Algorithm Type is PK.
  DIIS enabled.
  MOM disabled.
  Fractional occupation disabled.
  Guess Type is READ.
  Energy threshold   = 1.00e-08
  Density threshold  = 1.00e-08
  Integral threshold = 0.00e+00

  ==> Primary Basis <==

  Basis Set: CC-PVDZ
    Blend: CC-PVDZ
    Number of shells: 12
    Number of basis function: 24
    Number of Cartesian functions: 25
    Spherical Harmonics?: true
    Max angular momentum: 2

   => Loading Basis Set <=

    Name: CC-PVDZ
    Role: ORBITAL
    Keyword: BASIS
    atoms 1   entry O          line   198 file /home/aroeira/psi4conda/share/psi4/basis/cc-pvdz.gbs 
    atoms 2-3 entry H          line    22 file /home/aroeira/psi4conda/share/psi4/basis/cc-pvdz.gbs 

  Reading orbitals from file 180, no projection.

  ==> Pre-Iterations <==

   -------------------------------------------------------
    Irrep   Nso     Nmo     Nalpha   Nbeta   Ndocc  Nsocc
   -------------------------------------------------------
     A         24      24       0       0       0       0
   -------------------------------------------------------
    Total      24      24       5       5       5       0
   -------------------------------------------------------

  ==> Integral Setup <==

  Using in-core PK algorithm.
   Calculation information:
      Number of atoms:                   3
      Number of AO shells:              12
      Number of primitives:             32
      Number of atomic orbitals:        25
      Number of basis functions:        24

      Integral cutoff                 1.00e-12
      Number of threads:                 1

  Performing in-core PK
  Using 90300 doubles for integral storage.
  We computed 3081 shell quartets total.
  Whereas there are 3081 unique shell quartets.

  ==> DiskJK: Disk-Based J/K Matrices <==

    J tasked:                  Yes
    K tasked:                  Yes
    wK tasked:                  No
    Memory [MiB]:              375
    Schwarz Cutoff:          1E-12

    OpenMP threads:              1

  Minimum eigenvalue in the overlap matrix is 3.4377086613E-02.
  Using Symmetric Orthogonalization.

  SCF Guess: Orbitals guess was supplied from a previous computation.

  ==> Iterations <==

                        Total Energy        Delta E     RMS |[F,P]|

   @RHF iter   0:   -76.02665366188845   -7.60267e+01   6.85545e-09 
   @RHF iter   1:   -76.02665366188850   -5.68434e-14   2.42229e-09 DIIS
  Energy and wave function converged.


  ==> Post-Iterations <==

    Orbital Energies [Eh]
    ---------------------

    Doubly Occupied:                                                      

       1A    -20.550919     2A     -1.335305     3A     -0.697799  
       4A     -0.566090     5A     -0.492954  

    Virtual:                                                              

       6A      0.185103     7A      0.255849     8A      0.787301  
       9A      0.851798    10A      1.163709    11A      1.200352  
      12A      1.253479    13A      1.444918    14A      1.475588  
      15A      1.674083    16A      1.867861    17A      1.931955  
      18A      2.446380    19A      2.483524    20A      3.283305  
      21A      3.336169    22A      3.506961    23A      3.862825  
      24A      4.144454  

    Final Occupation by Irrep:
              A 
    DOCC [     5 ]

  @RHF Final Energy:   -76.02665366188850

   => Energetics <=

    Nuclear Repulsion Energy =              9.1681932964243487
    One-Electron Energy =                -123.1035619556652136
    Two-Electron Energy =                  37.9087149973523623
    Total Energy =                        -76.0266536618885027

Computation Completed


Properties will be evaluated at   0.000000,   0.000000,   0.000000 [a0]

Properties computed using the SCF density matrix

  Nuclear Dipole Moment: [e a0]
     X:     0.0000      Y:     0.0000      Z:     0.9783

  Electronic Dipole Moment: [e a0]
     X:    -0.0000      Y:    -0.0000      Z:    -0.1682

  Dipole Moment: [e a0]
     X:    -0.0000      Y:    -0.0000      Z:     0.8101     Total:     0.8101

  Dipole Moment: [D]
     X:    -0.0000      Y:    -0.0000      Z:     2.0592     Total:     2.0592


*** tstop() called on BabyShark at Thu Dec  5 02:06:40 2019
Module time:
	user time   =       0.24 seconds =       0.00 minutes
	system time =       0.01 seconds =       0.00 minutes
	total time  =          0 seconds =       0.00 minutes
Total time:
	user time   =       9.62 seconds =       0.16 minutes
	system time =       0.17 seconds =       0.00 minutes
	total time  =         10 seconds =       0.17 minutes
 MINTS: Wrapper to libmints.
   by Justin Turney

   Calculation information:
      Number of threads:                 1
      Number of atoms:                   3
      Number of AO shells:              12
      Number of SO shells:              12
      Number of primitives:             32
      Number of atomic orbitals:        25
      Number of basis functions:        24

      Number of irreps:                  1
      Integral cutoff                 0.00e+00
      Number of functions per irrep: [  24 ]

 OEINTS: Overlap, kinetic, potential, dipole, and quadrupole integrals
         stored in file 35.

      Computing two-electron integrals...done
      Computed 22238 non-zero two-electron integrals.
        Stored in file 33.


*** tstart() called on BabyShark
*** at Thu Dec  5 02:06:40 2019


	Wfn Parameters:
	--------------------
	Wavefunction         = CCSD
	Number of irreps     = 1
	Number of MOs        = 24
	Number of active MOs = 24
	AO-Basis             = NONE
	Semicanonical        = false
	Reference            = RHF
	Print Level          = 1

	IRREP	# MOs	# FZDC	# DOCC	# SOCC	# VIRT	# FZVR
	-----	-----	------	------	------	------	------
	 A	   24	    0	    5	    0	    19	    0
	Transforming integrals...
	IWL integrals will be deleted.
	(OO|OO)...
	Presorting SO-basis two-electron integrals.
	Sorting File: SO Ints (nn|nn) nbuckets = 1
	Transforming the one-electron integrals and constructing Fock matrices
	Starting first half-transformation.
	Sorting half-transformed integrals.
	First half integral transformation complete.
	Starting second half-transformation.
	Two-electron integral transformation complete.
	(OO|OV)...
	Starting second half-transformation.
	Two-electron integral transformation complete.
	(OO|VV)...
	Starting second half-transformation.
	Two-electron integral transformation complete.
	(OV|OO)...
	Starting first half-transformation.
	Sorting half-transformed integrals.
	First half integral transformation complete.
	Starting second half-transformation.
	Two-electron integral transformation complete.
	(OV|OV)...
	Starting second half-transformation.
	Two-electron integral transformation complete.
	(OV|VV)...
	Starting second half-transformation.
	Two-electron integral transformation complete.
	(VV|OO)...
	Starting first half-transformation.
	Sorting half-transformed integrals.
	First half integral transformation complete.
	Starting second half-transformation.
	Two-electron integral transformation complete.
	(VV|OV)...
	Starting second half-transformation.
	Two-electron integral transformation complete.
	(VV|VV)...
	Starting second half-transformation.
	Two-electron integral transformation complete.
	Frozen core energy     =      0.00000000000000

	Size of irrep 0 of <ab|cd> integrals:      0.130 (MW) /      1.043 (MB)
	Total:                                     0.130 (MW) /      1.043 (MB)

	Size of irrep 0 of <ia|bc> integrals:      0.034 (MW) /      0.274 (MB)
	Total:                                     0.034 (MW) /      0.274 (MB)

	Size of irrep 0 of tijab amplitudes:       0.009 (MW) /      0.072 (MB)
	Total:                                     0.009 (MW) /      0.072 (MB)

	Nuclear Rep. energy          =      9.16819329642435
	SCF energy                   =    -76.02665366188850
	One-electron energy          =   -123.10356195524950
	Two-electron energy          =     37.90871499693669
	Reference energy             =    -76.02665366188846

*** tstop() called on BabyShark at Thu Dec  5 02:06:40 2019
Module time:
	user time   =       0.04 seconds =       0.00 minutes
	system time =       0.02 seconds =       0.00 minutes
	total time  =          0 seconds =       0.00 minutes
Total time:
	user time   =       9.69 seconds =       0.16 minutes
	system time =       0.19 seconds =       0.00 minutes
	total time  =         10 seconds =       0.17 minutes
            **************************
            *                        *
            *        CCENERGY        *
            *                        *
            **************************

    Nuclear Rep. energy (wfn)     =    9.168193296424349
    SCF energy          (wfn)     =  -76.026653661888503
    Reference energy    (file100) =  -76.026653661888460

    Input parameters:
    -----------------
    Wave function   =     CCSD
    Reference wfn   =     RHF
    Brueckner       =     No
    Memory (Mbytes) =     524.3
    Maxiter         =    100
    R_Convergence   =     1.0e-07
    E_Convergence   =     1.0e-08
    Restart         =     Yes
    DIIS            =     Yes
    AO Basis        =     NONE
    ABCD            =     NEW
    Cache Level     =     2
    Cache Type      =     LOW
    Print Level     =     1
    Num. of threads =     1
    # Amps to Print =     10
    Print MP2 Amps? =     No
    Analyze T2 Amps =     No
    Print Pair Ener =     No
    Local CC        =     No
    SCS-MP2         =     False
    SCSN-MP2        =     False
    SCS-CCSD        =     False

MP2 correlation energy -0.2041547994101253
                Solving CC Amplitude Equations
                ------------------------------
  Iter             Energy              RMS        T1Diag      D1Diag    New D1Diag    D2Diag
  ----     ---------------------    ---------   ----------  ----------  ----------   --------
     0        -0.204154799410125    0.000e+00    0.000000    0.000000    0.000000    0.109718
     1        -0.209082421274821    2.662e-02    0.004037    0.008623    0.008623    0.116642
     2        -0.213047269935315    9.416e-03    0.004774    0.009920    0.009920    0.122003
     3        -0.213460116899778    2.450e-03    0.005208    0.010787    0.010787    0.123222
     4        -0.213471286228439    5.618e-04    0.005249    0.011005    0.011005    0.123418
     5        -0.213482789150938    1.677e-04    0.005272    0.011117    0.011117    0.123452
     6        -0.213480891049954    5.580e-05    0.005281    0.011162    0.011162    0.123445
     7        -0.213480651695166    1.505e-05    0.005284    0.011177    0.011177    0.123443
     8        -0.213480531894203    2.606e-06    0.005284    0.011179    0.011179    0.123443
     9        -0.213480482893572    6.344e-07    0.005284    0.011179    0.011179    0.123443
    10        -0.213480497960678    1.289e-07    0.005284    0.011179    0.011179    0.123443
    11        -0.213480496596944    2.750e-08    0.005284    0.011179    0.011179    0.123443
    12        -0.213480496870703    4.619e-09    0.005284    0.011179    0.011179    0.123443

    Iterations converged.


    Largest TIA Amplitudes:
              3   0         0.0074533848
              2  12         0.0073539093
              2   1        -0.0059320362
              3  13         0.0050186795
              2   6         0.0045914738
              1   4         0.0042640947
              1   0        -0.0038921478
              4   9        -0.0032877762
              4   5        -0.0030764648
              3   3        -0.0029875494

    Largest TIjAb Amplitudes:
      4   4   5   5        -0.0513981932
      2   2   2   2        -0.0361443501
      3   3   4   4        -0.0354093928
      2   2   1   1        -0.0294924772
      3   4   4   5         0.0286089388
      4   3   5   4         0.0286089388
      2   2   3   3        -0.0284156378
      3   3   2   2        -0.0256393912
      2   4   6   5        -0.0227703760
      4   2   5   6        -0.0227703760

    SCF energy       (wfn)                    =  -76.026653661888503
    Reference energy (file100)                =  -76.026653661888460

    Opposite-spin MP2 correlation energy      =   -0.152603869387752
    Same-spin MP2 correlation energy          =   -0.051550930022373
    MP2 correlation energy                    =   -0.204154799410125
      * MP2 total energy                      =  -76.230808461298579

    Opposite-spin CCSD correlation energy     =   -0.167448064324763
    Same-spin CCSD correlation energy         =   -0.046032432545940
    CCSD correlation energy                   =   -0.213480496870703
      * CCSD total energy                     =  -76.240134158759162


    Psi4 stopped on: Thursday, 05 December 2019 02:06AM
    Psi4 wall time for execution: 0:00:10.29

*** Psi4 exiting successfully. Buy a developer a beer!
